
                                 *****************
                                 * O   R   C   A *
                                 *****************

                                            #,                                       
                                            ###                                      
                                            ####                                     
                                            #####                                    
                                            ######                                   
                                           ########,                                 
                                     ,,################,,,,,                         
                               ,,#################################,,                 
                          ,,##########################################,,             
                       ,#########################################, ''###F##,          
                    ,#############################################,,   '####,        
                  ,##################################################,,,,####,       
                ,###########''''           ''''###############################       
              ,#####''   ,,,,##########,,,,          '''####'''          '####       
            ,##' ,,,,###########################,,,                        '##       
           ' ,,###''''                  '''############,,,                           
         ,,##''                                '''############,,,,        ,,,,,,###''
      ,#''                                            '''#######################'''  
     '                                                          ''''####''''         
             ,#######,   #######,   ,#######,      ##                                
            ,#'     '#,  ##    ##  ,#'     '#,    #''#        ,####,   ,####,        
            ##       ##  ##   ,#'  ##            #'  '#       #'       #'  '#        
            ##       ##  #######   ##           ,######,      #####,   #    #        
            '#,     ,#'  ##    ##  '#,     ,#' ,#      #,     #,   #   #,  ,#        
             '#######'   ##     ##  '#######'  #'      '#     '####' # '####'        



                #########################################################
                #                        -***-                          #
                #          Department of theory and spectroscopy        #
                #                                                       #
                #                      Frank Neese                      #
                #                                                       #
                #     Directorship, Architecture, Infrastructure        #
                #                    SHARK, DRIVERS                     #
                #        Core code/Algorithms in most modules           #
                #                                                       #
                #        Max Planck Institute fuer Kohlenforschung      #
                #                Kaiser Wilhelm Platz 1                 #
                #                 D-45470 Muelheim/Ruhr                 #
                #                      Germany                          #
                #                                                       #
                #                  All rights reserved                  #
                #                        -***-                          #
                #########################################################


                         Program Version 6.0.1  -  RELEASE   -


 With contributions from (in alphabetic order):
[Max-Planck-Institut fuer Kohlenforschung]                               
  Daniel Aravena         : Magnetic Suceptibility                        
  Michael Atanasov       : Ab Initio Ligand Field Theory (pilot matlab implementation)
  Alexander A. Auer      : GIAO ZORA, VPT2 properties, NMR spectrum      
  Ute Becker             : All parallelization in ORCA, NUMFREQ, NUMCALC 
  Giovanni Bistoni       : ED, misc. LED, open-shell LED, HFLD           
  Martin Brehm           : Molecular dynamics                            
  Dmytro Bykov           : pre 5.0 version of the SCF Hessian            
  Marcos Casanova-Páez   : Triplet and SCS-CIS(D). UHF-(DLPNO)-IP/EA/STEOM-CCSD. UHF-CVS-IP/STEOM-CCSD   
  Vijay G. Chilkuri      : MRCI spin determinant printing, contributions to CSF-ICE 
  Pauline Colinet        : FMM embedding                                 
  Dipayan Datta          : RHF DLPNO-CCSD density                        
  Achintya Kumar Dutta   : EOM-CC, STEOM-CC                              
  Nicolas Foglia         : Exact transition moments, OPA infrastructure, MCD improvements    
  Dmitry Ganyushin       : Spin-Orbit,Spin-Spin,Magnetic field MRCI      
  Miquel Garcia-Rates    : C-PCM and meta-GGA Hessian, CCSD/C-PCM, Gaussian charge scheme 
  Tiago L. C. Gouveia    : GS-ROHF, GS-ROCIS                             
  Yang Guo               : DLPNO-NEVPT2, F12-NEVPT2, CIM, IAO-localization        
  Andreas Hansen         : Spin unrestricted coupled pair/coupled cluster methods 
  Ingolf Harden          : AUTO-CI MPn and infrastructure                
  Benjamin Helmich-Paris : MC-RPA, TRAH-(SCF,CASSCF), AVAS, COSX integrals, SCF dyn. polar. 
  Lee Huntington         : MR-EOM, pCC                                   
  Robert Izsak           : Overlap fitted RIJCOSX, COSX-SCS-MP3, EOM     
  Riya Kayal             : Wick's Theorem for AUTO-CI, AUTO-CI UHF-CCSDT 
  Emily Kempfer          : AUTO-CI, RHF CISDT and CCSDT                  
  Christian Kollmar      : KDIIS, OOCD, Brueckner-CCSD(T), CCSD density, CASPT2, CASPT2-K, improved NEVPT2 
  Axel Koslowski         : Symmetry handling                             
  Simone Kossmann        : meta-GGA functionals, TD-DFT gradient, OOMP2, (MP2 Hessian; deprecated post 5.0) 
  Lucas Lang             : DCDCAS                                        
  Marvin Lechner         : AUTO-CI (C++ implementation), FIC-MRCC        
  Spencer Leger          : CASSCF response                               
  Dagmar Lenk            : GEPOL surface, SMD, ORCA-2-JSON               
  Dimitrios Liakos       : Extrapolation schemes; Compound Job, initial MDCI parallelization 
  Dimitrios Manganas     : Further ROCIS development; embedding schemes. LFT, Crystal Embedding 
  Dimitrios Pantazis     : SARC Basis sets                               
  Anastasios Papadopoulos: AUTO-CI, single reference methods and gradients 
  Taras Petrenko         : pre 6.0 DFT Hessian and TD-DFT gradient, (ASA, deprecated), ECA, 1-Electron XAS/XES, NRVS 
  Peter Pinski           : DLPNO-MP2, DLPNO-MP2 Gradient                 
  Christoph Reimann      : Effective Core Potentials                     
  Marius Retegan         : Local ZFS, SOC                                
  Christoph Riplinger    : Optimizer, TS searches, QM/MM, DLPNO-CCSD(T), (RO)-DLPNO pert. Triples 
  Michael Roemelt        : Original ROCIS implementation                 
  Masaaki Saitow         : Open-shell DLPNO-CCSD energy and density      
  Barbara Sandhoefer     : DKH picture change effects                    
  Kantharuban Sivalingam : CASSCF convergence/infrastructure, NEVPT2 and variants, FIC-MRCI 
  Bernardo de Souza      : ESD, SOC TD-DFT                               
  Georgi L. Stoychev     : AutoAux, RI-MP2 NMR, DLPNO-MP2 response, X2C  
  Van Anh Tran           : RI-MP2 g-tensors                              
  Willem Van den Heuvel  : Paramagnetic NMR                              
  Zikuan Wang            : NOTCH, Electric field optimization            
  Frank Wennmohs         : Technical directorship and infrastructure     
  Hang Xu                : AUTO-CI-Response properties                   
                                                                         
[FACCTs GmbH]                                                            
  Markus Bursch, Miquel Garcia-Rates, Christoph Riplinger, Bernardo de Souza, Georgi L. Stoychev 
                                                                 
  APM, Basis sets (HGBS, AHGBS, def-TZVP (Ac-Lr), def2-XVPD (La-Lu)), CI-OPT, improved COSX, DLPNO-Multilevel,           
  DOCKER, DRACO, updates on ESD, GOAT, IRC, LR-CPCM, MBIS, meta-GGA TD-DFT gradient, ML-optimized integration grids, 
  MM, NACMEs, nearIR, NEB, NEB-TS, NL-DFT gradient (VV10), 2- and 3-layer-ONIOM, interface openCOSMO-RS, QMMM,   
  Crystal-QMMM, SF, symmetry and pop. for TD-DFT, r2SCAN hybrids, SOLVATOR                                   
                                                                         
[Other institutions]                                                     
  V. Asgeirsson          : NEB                                           
  Christoph Bannwarth    : sTDA-DFT, sTD-DFT, PBEh-3c, B97-3c, D3        
  Sebastian Ehlert       : rSCAN, r2SCAN, r2SCAN-3c, D4, dhf basis sets  
  Marvin Friede          : D4 for Fr, Ra, Ac-Lr                          
  Lars Goerigk           : TD-DFT with DH, B97 family of functionals     
  Stefan Grimme          : VdW corrections, initial TS optimization, DFT functionals, gCP, sTDA/sTD-DF 
  Waldemar Hujo          : DFT-NL                                        
  H. Jonsson             : NEB                                           
  Holger Kruse           : gCP                                           
  Marcel Mueller         : wB97X-3c, vDZP basis set                      
  Hagen Neugebauer       : wr2SCAN                                       
  Tobias Risthaus        : range-separated hybrid DFT                    
  Lukas Wittmann         : regularized MP2, r2SCAN double-hybrids, wr2SCAN        
                                                                         
We gratefully acknowledge several colleagues who have allowed us to      
interface, adapt or use parts of their codes:                            
  Ed Valeev, F. Pavosevic, A. Kumar             : LibInt (2-el integral package), F12 methods 
  Garnet Chan, S. Sharma, J. Yang, R. Olivares  : DMRG                   
  Ulf Ekstrom                                   : XCFun DFT Library      
  Mihaly Kallay                                 : mrcc  (arbitrary order and MRCC methods)
  Frank Weinhold                                : gennbo (NPA and NBO analysis)           
  Simon Mueller                                 : openCOSMO-RS                            
  Christopher J. Cramer and Donald G. Truhlar   : smd solvation model                     
  S Lehtola, MJT Oliveira, MAL Marques          : LibXC Library                           
  Liviu Ungur et al                             : ANISO software                          


 Your calculation uses the libint2 library for the computation of 2-el integrals
 For citations please refer to: http://libint.valeyev.net

 Your ORCA version has been built with support for libXC version: 6.2.2
 For citations please refer to: https://libxc.gitlab.io

 This ORCA versions uses:
   CBLAS   interface :  Fast vector & matrix operations
   LAPACKE interface :  Fast linear algebra routines
   SCALAPACK package :  Parallel linear algebra routines
   Shared memory     :  Shared parallel matrices
   BLAS/LAPACK       :  OpenBLAS 0.3.27  USE64BITINT DYNAMIC_ARCH NO_AFFINITY Cooperlake SINGLE_THREADED
        Core in use  :  Cooperlake
   Copyright (c) 2011-2014, The OpenBLAS Project




***************************************
The coordinates will be read from file: TS1_guess.xyz
***************************************


Your calculation utilizes the atom-pairwise dispersion correction
with the Becke-Johnson damping scheme (D3BJ)


================================================================================

----- Orbital basis set information -----
Your calculation utilizes the basis: def2-SVP
   F. Weigend and R. Ahlrichs, Phys. Chem. Chem. Phys. 7, 3297 (2005).

The basis set includes element-specific modifications.

Your calculation utilizes the basis: def2-TZVP
   F. Weigend and R. Ahlrichs, Phys. Chem. Chem. Phys. 7, 3297 (2005).

----- AuxJ basis set information -----
Your calculation utilizes the auxiliary basis: def2/J
   F. Weigend, Phys. Chem. Chem. Phys. 8, 1057 (2006).

================================================================================
                                        WARNINGS
                       Please study these warnings very carefully!
================================================================================

Guess rotation angle =  45.0
Number of electrons  =   378
Multiplicity         =     3
Alpha-HOMO           =   189
Alpha-LUMO           =   190

WARNING: Geometry Optimization
  ===> : Switching off AutoStart
         For restart on a previous wavefunction, please use MOREAD

================================================================================
                                       INPUT FILE
================================================================================
NAME = TS1_TS.inp
|  1> !OPTTS FREQ B3LYP D3BJ Def2-SVP RIJCOSX def2/J UKS GUESSMIX
|  2> 
|  3> %pal nprocs 16 end
|  4> 
|  5> %cpcm epsilon 4.0 end
|  6> 
|  7> %geom calc_hess true end
|  8> 
|  9> * xyzfile 0 3 TS1_guess.xyz
| 10> 
| 11> %basis
| 12>     NewGTO Fe "def2-TZVP" end
| 13> end
| 14> 
| 15>                          ****END OF INPUT****
================================================================================

                       *****************************
                       * Geometry Optimization Run *
                       *****************************

Geometry optimization settings:
Update method            Update   .... Bofill
Choice of coordinates    CoordSys .... (2022) Redundant Internals
Initial Hessian          InHess   .... Almloef's Model
Max. no of cycles        MaxIter  .... 231

Convergence Tolerances:
Energy Change            TolE     ....  5.0000e-06 Eh
Max. Gradient            TolMAXG  ....  3.0000e-04 Eh/bohr
RMS Gradient             TolRMSG  ....  1.0000e-04 Eh/bohr
Max. Displacement        TolMAXD  ....  4.0000e-03 bohr
RMS Displacement         TolRMSD  ....  2.0000e-03 bohr
Strict Convergence                .... False

------------------------------------------------------------------------------
                        ORCA OPTIMIZATION COORDINATE SETUP
------------------------------------------------------------------------------

The optimization will be done in redundant internal coordinates (2022)
Making redundant internal coordinates   ...  (2022 redundants) done
Following TS mode number                ...     0
Evaluating the initial hessian          ...  (Is done on the fly) done
Evaluating the coordinates              ...  done
Calculating the B-matrix                .... done
Calculating the G-matrix                .... done
Diagonalizing the G-matrix              .... done
Small eigenvalue found = 1.523e-03
Small eigenvalue found = 4.295e-03
Small eigenvalue found = 4.828e-03
Small eigenvalue found = 6.951e-03
Small eigenvalue found = 9.796e-03
Small eigenvalue found = 1.134e-02
Small eigenvalue found = 1.664e-02
Small eigenvalue found = 2.758e-02
The first mode is                       ....  266
The number of degrees of freedom        ....  225

    -----------------------------------------------------------------
                    Redundant Internal Coordinates


    -----------------------------------------------------------------
         Definition                    Initial Value    d2E/dq (diagonal element)
    -----------------------------------------------------------------
      1. B(Fe  1,C   0)                  2.0086         0.000000   
      2. B(N   2,Fe  1)                  2.0003         0.000000   
      3. B(N   3,Fe  1)                  2.0121         0.000000   
      4. B(N   4,Fe  1)                  2.0156         0.000000   
      5. B(N   5,Fe  1)                  2.0070         0.000000   
      6. B(C   6,N   2)                  1.3705         0.000000   
      7. B(C   7,N   2)                  1.3698         0.000000   
      8. B(C   8,N   3)                  1.3691         0.000000   
      9. B(C   9,N   3)                  1.3672         0.000000   
     10. B(C  10,N   4)                  1.3693         0.000000   
     11. B(C  11,N   4)                  1.3685         0.000000   
     12. B(C  12,N   5)                  1.3703         0.000000   
     13. B(C  13,N   5)                  1.3730         0.000000   
     14. B(C  14,C  11)                  1.3904         0.000000   
     15. B(C  14,C   6)                  1.3919         0.000000   
     16. B(C  15,C   6)                  1.4431         0.000000   
     17. B(C  16,C   7)                  1.4411         0.000000   
     18. B(C  16,C  15)                  1.3662         0.000000   
     19. B(C  17,C   8)                  1.3874         0.000000   
     20. B(C  17,C   7)                  1.3901         0.000000   
     21. B(C  18,C   8)                  1.4456         0.000000   
     22. B(C  19,C  18)                  1.3622         0.000000   
     23. B(C  19,C   9)                  1.4479         0.000000   
     24. B(C  20,C  12)                  1.3917         0.000000   
     25. B(C  20,C   9)                  1.3901         0.000000   
     26. B(C  21,C  13)                  1.3902         0.000000   
     27. B(C  21,C  10)                  1.3895         0.000000   
     28. B(C  22,C  10)                  1.4456         0.000000   
     29. B(C  23,C  22)                  1.3638         0.000000   
     30. B(C  23,C  11)                  1.4469         0.000000   
     31. B(C  24,C  12)                  1.4414         0.000000   
     32. B(C  25,C  24)                  1.3661         0.000000   
     33. B(C  25,C  13)                  1.4406         0.000000   
     34. B(H  26,C  14)                  1.0913         0.000000   
     35. B(H  27,C  15)                  1.0893         0.000000   
     36. B(H  28,C  16)                  1.0886         0.000000   
     37. B(H  29,C  17)                  1.0900         0.000000   
     38. B(H  30,C  18)                  1.0885         0.000000   
     39. B(H  31,C  19)                  1.0893         0.000000   
     40. B(H  32,C  20)                  1.0913         0.000000   
     41. B(H  33,C  21)                  1.0908         0.000000   
     42. B(H  34,C  22)                  1.0891         0.000000   
     43. B(H  35,C  23)                  1.0893         0.000000   
     44. B(H  36,C  24)                  1.0892         0.000000   
     45. B(H  37,C  25)                  1.0891         0.000000   
     46. B(N  38,Fe  1)                  2.1057         0.000000   
     47. B(C  39,N  38)                  1.3205         0.000000   
     48. B(C  40,N  38)                  1.3773         0.000000   
     49. B(H  41,C  39)                  1.0869         0.000000   
     50. B(N  42,C  39)                  1.3530         0.000000   
     51. B(C  43,N  42)                  1.3828         0.000000   
     52. B(C  43,C  40)                  1.3758         0.000000   
     53. B(H  44,C  40)                  1.0860         0.000000   
     54. B(H  45,N  42)                  1.0151         0.000000   
     55. B(C  46,C  43)                  1.4905         0.000000   
     56. B(H  47,C  46)                  1.0988         0.000000   
     57. B(H  48,C  46)                  1.1031         0.000000   
     58. B(H  49,C  46)                  1.1031         0.000000   
     59. B(C  50,C   0)                  1.4732         0.000000   
     60. B(C  51,C  50)                  1.4101         0.000000   
     61. B(C  52,C  51)                  1.3903         0.000000   
     62. B(H  53,C  51)                  1.0885         0.000000   
     63. B(C  55,C  52)                  1.3985         0.000000   
     64. B(C  55,C  54)                  1.3959         0.000000   
     65. B(H  56,C  52)                  1.0928         0.000000   
     66. B(H  57,C  55)                  1.0898         0.000000   
     67. B(N  58,C  54)                  1.3077         0.000000   
     68. B(N  58,C  50)                  1.3549         0.000000   
     69. B(Br 59,C  54)                  1.9376         0.000000   
     70. B(C  60,C   0)                  1.5073         0.000000   
     71. B(H  61,C   0)                  1.6579         0.000000   
     72. B(H  62,C  60)                  1.1025         0.000000   
     73. B(H  63,C  60)                  1.1041         0.000000   
     74. B(H  64,C  60)                  1.0955         0.000000   
     75. B(C  66,H  65)                  1.0904         0.000000   
     76. B(C  67,C  66)                  1.4042         0.000000   
     77. B(S  68,C  67)                  1.7781         0.000000   
     78. B(S  68,H  61)                  1.4645         0.000000   
     79. B(C  70,H  69)                  1.0920         0.000000   
     80. B(C  70,C  67)                  1.4051         0.000000   
     81. B(H  71,H  30)                  3.7496         0.000000   
     82. B(C  72,H  71)                  1.0935         0.000000   
     83. B(C  72,C  70)                  1.3967         0.000000   
     84. B(C  73,C  72)                  1.3994         0.000000   
     85. B(H  74,C  73)                  1.0929         0.000000   
     86. B(C  75,C  73)                  1.3991         0.000000   
     87. B(C  75,C  66)                  1.3962         0.000000   
     88. B(H  76,H  28)                  3.1787         0.000000   
     89. B(H  76,C  75)                  1.0931         0.000000   
     90. A(Fe  1,C   0,C  50)          115.5170         0.000000   
     91. A(C  50,C   0,C  60)          112.9260         0.000000   
     92. A(C  50,C   0,H  61)           98.9484         0.000000   
     93. A(Fe  1,C   0,H  61)          106.1152         0.000000   
     94. A(Fe  1,C   0,C  60)          119.0716         0.000000   
     95. A(C  60,C   0,H  61)          100.4313         0.000000   
     96. A(N   3,Fe  1,N   5)           90.4781         0.000000   
     97. A(N   4,Fe  1,N   5)           88.9822         0.000000   
     98. A(N   4,Fe  1,N  38)           88.5845         0.000000   
     99. A(C   0,Fe  1,N   5)           94.3896         0.000000   
    100. A(N   2,Fe  1,N   4)           90.8295         0.000000   
    101. A(N   3,Fe  1,N  38)           88.5298         0.000000   
    102. A(C   0,Fe  1,N  38)          174.7251         0.000000   
    103. A(N   2,Fe  1,N   5)          173.8700         0.000000   
    104. A(N   5,Fe  1,N  38)           87.2586         0.000000   
    105. A(C   0,Fe  1,N   3)           96.4593         0.000000   
    106. A(N   2,Fe  1,N  38)           86.6114         0.000000   
    107. A(C   0,Fe  1,N   4)           86.4373         0.000000   
    108. A(N   2,Fe  1,N   3)           89.4014         0.000000   
    109. A(C   0,Fe  1,N   2)           91.7137         0.000000   
    110. A(Fe  1,N   2,C   6)          126.3593         0.000000   
    111. A(C   6,N   2,C   7)          106.2600         0.000000   
    112. A(Fe  1,N   2,C   7)          127.3677         0.000000   
    113. A(Fe  1,N   3,C   8)          127.2681         0.000000   
    114. A(Fe  1,N   3,C   9)          126.7523         0.000000   
    115. A(C   8,N   3,C   9)          105.9757         0.000000   
    116. A(C  10,N   4,C  11)          106.1274         0.000000   
    117. A(Fe  1,N   4,C  10)          127.4615         0.000000   
    118. A(Fe  1,N   4,C  11)          126.3211         0.000000   
    119. A(C  12,N   5,C  13)          106.0926         0.000000   
    120. A(Fe  1,N   5,C  12)          126.4587         0.000000   
    121. A(Fe  1,N   5,C  13)          127.4000         0.000000   
    122. A(C  14,C   6,C  15)          123.9806         0.000000   
    123. A(N   2,C   6,C  15)          110.1448         0.000000   
    124. A(N   2,C   6,C  14)          125.7954         0.000000   
    125. A(C  16,C   7,C  17)          124.1094         0.000000   
    126. A(N   2,C   7,C  17)          125.5644         0.000000   
    127. A(N   2,C   7,C  16)          110.3063         0.000000   
    128. A(N   3,C   8,C  18)          110.5290         0.000000   
    129. A(C  17,C   8,C  18)          124.0652         0.000000   
    130. A(N   3,C   8,C  17)          125.3024         0.000000   
    131. A(C  19,C   9,C  20)          124.1173         0.000000   
    132. A(N   3,C   9,C  20)          125.4408         0.000000   
    133. A(N   3,C   9,C  19)          110.4418         0.000000   
    134. A(C  21,C  10,C  22)          124.3198         0.000000   
    135. A(N   4,C  10,C  22)          110.4224         0.000000   
    136. A(N   4,C  10,C  21)          125.1420         0.000000   
    137. A(C  14,C  11,C  23)          124.1955         0.000000   
    138. A(N   4,C  11,C  23)          110.3166         0.000000   
    139. A(N   4,C  11,C  14)          125.4685         0.000000   
    140. A(C  20,C  12,C  24)          123.8246         0.000000   
    141. A(N   5,C  12,C  24)          110.2861         0.000000   
    142. A(N   5,C  12,C  20)          125.7558         0.000000   
    143. A(C  21,C  13,C  25)          124.1845         0.000000   
    144. A(N   5,C  13,C  25)          110.2971         0.000000   
    145. A(N   5,C  13,C  21)          125.5053         0.000000   
    146. A(C  11,C  14,H  26)          117.4944         0.000000   
    147. A(C   6,C  14,H  26)          117.3505         0.000000   
    148. A(C   6,C  14,C  11)          125.0870         0.000000   
    149. A(C  16,C  15,H  27)          128.7520         0.000000   
    150. A(C   6,C  15,H  27)          124.5685         0.000000   
    151. A(C   6,C  15,C  16)          106.6748         0.000000   
    152. A(C  15,C  16,H  28)          128.9473         0.000000   
    153. A(C   7,C  16,H  28)          124.4484         0.000000   
    154. A(C   7,C  16,C  15)          106.6041         0.000000   
    155. A(C   7,C  17,C   8)          124.4099         0.000000   
    156. A(C   8,C  17,H  29)          117.8945         0.000000   
    157. A(C   7,C  17,H  29)          117.6820         0.000000   
    158. A(C   8,C  18,C  19)          106.4885         0.000000   
    159. A(C  19,C  18,H  30)          129.0468         0.000000   
    160. A(C   8,C  18,H  30)          124.4629         0.000000   
    161. A(C   9,C  19,C  18)          106.5492         0.000000   
    162. A(C  18,C  19,H  31)          128.8771         0.000000   
    163. A(C   9,C  19,H  31)          124.5735         0.000000   
    164. A(C   9,C  20,C  12)          124.9743         0.000000   
    165. A(C  12,C  20,H  32)          117.4058         0.000000   
    166. A(C   9,C  20,H  32)          117.5681         0.000000   
    167. A(C  10,C  21,C  13)          124.3687         0.000000   
    168. A(C  13,C  21,H  33)          117.7486         0.000000   
    169. A(C  10,C  21,H  33)          117.8441         0.000000   
    170. A(C  10,C  22,C  23)          106.5030         0.000000   
    171. A(C  23,C  22,H  34)          128.9105         0.000000   
    172. A(C  10,C  22,H  34)          124.5808         0.000000   
    173. A(C  11,C  23,C  22)          106.6164         0.000000   
    174. A(C  22,C  23,H  35)          128.7915         0.000000   
    175. A(C  11,C  23,H  35)          124.5900         0.000000   
    176. A(C  12,C  24,C  25)          106.6919         0.000000   
    177. A(C  25,C  24,H  36)          128.7360         0.000000   
    178. A(C  12,C  24,H  36)          124.5621         0.000000   
    179. A(C  13,C  25,C  24)          106.6176         0.000000   
    180. A(C  24,C  25,H  37)          128.8188         0.000000   
    181. A(C  13,C  25,H  37)          124.5621         0.000000   
    182. A(C  39,N  38,C  40)          106.7640         0.000000   
    183. A(Fe  1,N  38,C  40)          127.3689         0.000000   
    184. A(Fe  1,N  38,C  39)          125.8670         0.000000   
    185. A(H  41,C  39,N  42)          123.9607         0.000000   
    186. A(N  38,C  39,N  42)          110.1726         0.000000   
    187. A(N  38,C  39,H  41)          125.8665         0.000000   
    188. A(C  43,C  40,H  44)          128.5074         0.000000   
    189. A(N  38,C  40,H  44)          121.7968         0.000000   
    190. A(N  38,C  40,C  43)          109.6959         0.000000   
    191. A(C  43,N  42,H  45)          125.9684         0.000000   
    192. A(C  39,N  42,H  45)          125.4121         0.000000   
    193. A(C  39,N  42,C  43)          108.6195         0.000000   
    194. A(N  42,C  43,C  46)          123.3788         0.000000   
    195. A(C  40,C  43,C  46)          131.8733         0.000000   
    196. A(C  40,C  43,N  42)          104.7479         0.000000   
    197. A(H  48,C  46,H  49)          107.5486         0.000000   
    198. A(H  47,C  46,H  49)          108.0738         0.000000   
    199. A(C  43,C  46,H  49)          111.5728         0.000000   
    200. A(H  47,C  46,H  48)          108.0991         0.000000   
    201. A(C  43,C  46,H  48)          111.5957         0.000000   
    202. A(C  43,C  46,H  47)          109.8117         0.000000   
    203. A(C  51,C  50,N  58)          119.9073         0.000000   
    204. A(C   0,C  50,N  58)          117.3731         0.000000   
    205. A(C   0,C  50,C  51)          122.7195         0.000000   
    206. A(C  52,C  51,H  53)          120.6188         0.000000   
    207. A(C  50,C  51,H  53)          119.7695         0.000000   
    208. A(C  50,C  51,C  52)          119.6084         0.000000   
    209. A(C  55,C  52,H  56)          119.9330         0.000000   
    210. A(C  51,C  52,H  56)          120.2973         0.000000   
    211. A(C  51,C  52,C  55)          119.7649         0.000000   
    212. A(N  58,C  54,Br 59)          116.3239         0.000000   
    213. A(C  55,C  54,Br 59)          118.1235         0.000000   
    214. A(C  55,C  54,N  58)          125.5460         0.000000   
    215. A(C  54,C  55,H  57)          121.7390         0.000000   
    216. A(C  52,C  55,H  57)          122.3884         0.000000   
    217. A(C  52,C  55,C  54)          115.8722         0.000000   
    218. A(C  50,N  58,C  54)          119.2114         0.000000   
    219. A(C   0,C  60,H  62)          110.8939         0.000000   
    220. A(H  63,C  60,H  64)          108.6144         0.000000   
    221. A(H  62,C  60,H  64)          108.0634         0.000000   
    222. A(C   0,C  60,H  64)          112.4942         0.000000   
    223. A(H  62,C  60,H  63)          106.3599         0.000000   
    224. A(C   0,C  60,H  63)          110.1900         0.000000   
    225. A(C   0,H  61,S  68)          160.8562         0.000000   
    226. A(C  67,C  66,C  75)          120.3229         0.000000   
    227. A(H  65,C  66,C  75)          120.0343         0.000000   
    228. A(H  65,C  66,C  67)          119.6338         0.000000   
    229. A(S  68,C  67,C  70)          119.0428         0.000000   
    230. A(C  66,C  67,C  70)          119.0260         0.000000   
    231. A(C  66,C  67,S  68)          121.9238         0.000000   
    232. A(H  61,S  68,C  67)           99.8619         0.000000   
    233. A(H  69,C  70,C  72)          120.3064         0.000000   
    234. A(C  67,C  70,C  72)          120.4393         0.000000   
    235. A(C  67,C  70,H  69)          119.2411         0.000000   
    236. A(H  71,C  72,C  73)          120.1337         0.000000   
    237. A(C  70,C  72,C  73)          120.3094         0.000000   
    238. A(C  70,C  72,H  71)          119.5517         0.000000   
    239. A(H  74,C  73,C  75)          120.3092         0.000000   
    240. A(C  72,C  73,C  75)          119.4001         0.000000   
    241. A(C  72,C  73,H  74)          120.2902         0.000000   
    242. A(C  73,C  75,H  76)          120.1203         0.000000   
    243. A(C  66,C  75,H  76)          119.4043         0.000000   
    244. A(C  66,C  75,C  73)          120.4753         0.000000   
    245. D(N   2,Fe  1,C   0,H  61)     76.6128         0.000000   
    246. D(N   2,Fe  1,C   0,C  50)   -174.8863         0.000000   
    247. D(N   4,Fe  1,C   0,C  60)     55.2358         0.000000   
    248. D(N   4,Fe  1,C   0,C  50)    -84.1615         0.000000   
    249. D(N   3,Fe  1,C   0,H  61)    -12.9786         0.000000   
    250. D(N   3,Fe  1,C   0,C  60)   -125.0803         0.000000   
    251. D(N   3,Fe  1,C   0,C  50)     95.5224         0.000000   
    252. D(N   2,Fe  1,C   0,C  60)    -35.4890         0.000000   
    253. D(C   6,N   2,Fe  1,N  38)    -85.5447         0.000000   
    254. D(C   7,N   2,Fe  1,N   3)      7.3855         0.000000   
    255. D(C   7,N   2,Fe  1,C   0)    -89.0590         0.000000   
    256. D(C   6,N   2,Fe  1,N   4)      2.9880         0.000000   
    257. D(C   6,N   2,Fe  1,N   5)    -85.2042         0.000000   
    258. D(C   6,N   2,Fe  1,N   3)   -174.1073         0.000000   
    259. D(C   6,N   2,Fe  1,C   0)     89.4482         0.000000   
    260. D(C   8,N   3,Fe  1,N   5)    177.6660         0.000000   
    261. D(C   9,N   3,Fe  1,N   5)     -1.5105         0.000000   
    262. D(C   9,N   3,Fe  1,N   2)    172.3604         0.000000   
    263. D(C   8,N   3,Fe  1,N  38)    -95.0886         0.000000   
    264. D(C   8,N   3,Fe  1,N   2)     -8.4631         0.000000   
    265. D(C   9,N   3,Fe  1,C   0)    -95.9827         0.000000   
    266. D(C   9,N   3,Fe  1,N  38)     85.7348         0.000000   
    267. D(C   8,N   3,Fe  1,C   0)     83.1939         0.000000   
    268. D(C  10,N   4,Fe  1,N  38)    -98.4735         0.000000   
    269. D(C  11,N   4,Fe  1,N   2)     -1.1265         0.000000   
    270. D(C  11,N   4,Fe  1,N  38)     85.4630         0.000000   
    271. D(C  11,N   4,Fe  1,C   0)    -92.7921         0.000000   
    272. D(C  10,N   4,Fe  1,N   5)    -11.1910         0.000000   
    273. D(C  11,N   4,Fe  1,N   5)    172.7455         0.000000   
    274. D(C  10,N   4,Fe  1,C   0)     83.2714         0.000000   
    275. D(C  10,N   4,Fe  1,N   2)    174.9370         0.000000   
    276. D(C  10,N   4,N   3,C   8)    168.6426         0.000000   
    277. D(C  11,N   4,N   3,C   9)    169.0714         0.000000   
    278. D(C  11,N   4,N   3,C   8)     -9.6065         0.000000   
    279. D(C  10,N   4,N   3,C   9)    -12.6795         0.000000   
    280. D(C  12,N   5,Fe  1,N  38)    -85.1631         0.000000   
    281. D(C  13,N   5,Fe  1,C   0)    -77.2465         0.000000   
    282. D(C  13,N   5,Fe  1,N   2)     97.3925         0.000000   
    283. D(C  12,N   5,Fe  1,N   4)   -173.7945         0.000000   
    284. D(C  12,N   5,Fe  1,C   0)     99.8576         0.000000   
    285. D(C  12,N   5,Fe  1,N   3)      3.3421         0.000000   
    286. D(C  12,N   5,Fe  1,N   2)    -85.5034         0.000000   
    287. D(C  14,C   6,N   2,C   7)    176.6648         0.000000   
    288. D(C  15,C   6,N   2,C   7)     -0.1924         0.000000   
    289. D(C  14,C   6,N   2,Fe  1)     -2.0994         0.000000   
    290. D(C  15,C   6,N   2,Fe  1)   -178.9565         0.000000   
    291. D(C  16,C   7,N   2,C   6)     -0.4414         0.000000   
    292. D(C  17,C   7,N   2,C   6)    177.9847         0.000000   
    293. D(C  17,C   7,N   2,Fe  1)     -3.2676         0.000000   
    294. D(C  16,C   7,N   2,Fe  1)    178.3063         0.000000   
    295. D(C  18,C   8,N   3,C   9)      1.2637         0.000000   
    296. D(C  18,C   8,N   3,Fe  1)   -178.0500         0.000000   
    297. D(C  17,C   8,N   3,C   9)   -175.1525         0.000000   
    298. D(C  17,C   8,N   3,Fe  1)      5.5338         0.000000   
    299. D(C  20,C   9,N   3,C   8)    179.2552         0.000000   
    300. D(C  20,C   9,N   3,Fe  1)     -1.4265         0.000000   
    301. D(C  19,C   9,N   3,C   8)     -0.8359         0.000000   
    302. D(C  19,C   9,N   3,Fe  1)    178.4824         0.000000   
    303. D(C  22,C  10,N   4,C  11)      0.8785         0.000000   
    304. D(C  21,C  10,N   4,C  11)   -175.3394         0.000000   
    305. D(C  21,C  10,N   4,Fe  1)      7.9615         0.000000   
    306. D(C  22,C  10,N   4,Fe  1)   -175.8207         0.000000   
    307. D(C  14,C  11,N   4,Fe  1)     -1.9048         0.000000   
    308. D(C  23,C  11,N   4,C  10)     -0.2042         0.000000   
    309. D(C  23,C  11,N   4,Fe  1)    176.5440         0.000000   
    310. D(C  14,C  11,N   4,C  10)   -178.6529         0.000000   
    311. D(C  24,C  12,N   5,C  13)     -0.8264         0.000000   
    312. D(C  24,C  12,N   5,Fe  1)   -178.4324         0.000000   
    313. D(C  20,C  12,N   5,C  13)    175.0884         0.000000   
    314. D(C  20,C  12,N   5,Fe  1)     -2.5176         0.000000   
    315. D(C  25,C  13,N   5,C  12)      0.1177         0.000000   
    316. D(C  25,C  13,N   5,Fe  1)    177.6939         0.000000   
    317. D(C  21,C  13,N   5,C  12)    178.8376         0.000000   
    318. D(C  21,C  13,N   5,Fe  1)     -3.5862         0.000000   
    319. D(H  26,C  14,C  11,C  23)      2.6638         0.000000   
    320. D(H  26,C  14,C  11,N   4)   -179.0951         0.000000   
    321. D(C   6,C  14,C  11,C  23)   -174.2464         0.000000   
    322. D(C   6,C  14,C  11,N   4)      3.9947         0.000000   
    323. D(H  26,C  14,C   6,C  15)     -2.3387         0.000000   
    324. D(C  11,C  14,C   6,C  15)    174.5755         0.000000   
    325. D(C  11,C  14,C   6,N   2)     -1.8657         0.000000   
    326. D(H  26,C  14,C   6,N   2)   -178.7799         0.000000   
    327. D(H  27,C  15,C   6,C  14)      3.1109         0.000000   
    328. D(H  27,C  15,C   6,N   2)   -179.9632         0.000000   
    329. D(C  16,C  15,C   6,C  14)   -176.1505         0.000000   
    330. D(C  16,C  15,C   6,N   2)      0.7754         0.000000   
    331. D(H  28,C  16,C  15,H  27)     -0.0722         0.000000   
    332. D(H  28,C  16,C  15,C   6)    179.1480         0.000000   
    333. D(C   7,C  16,C  15,H  27)    179.7842         0.000000   
    334. D(C   7,C  16,C  15,C   6)     -0.9956         0.000000   
    335. D(H  28,C  16,C   7,C  17)      2.3424         0.000000   
    336. D(H  28,C  16,C   7,N   2)   -179.2040         0.000000   
    337. D(C  15,C  16,C   7,C  17)   -177.5222         0.000000   
    338. D(C  15,C  16,C   7,N   2)      0.9314         0.000000   
    339. D(H  29,C  17,C   8,C  18)      4.7720         0.000000   
    340. D(H  29,C  17,C   8,N   3)   -179.2801         0.000000   
    341. D(C   7,C  17,C   8,C  18)   -173.8509         0.000000   
    342. D(C   7,C  17,C   8,N   3)      2.0969         0.000000   
    343. D(H  29,C  17,C   7,C  16)     -3.7216         0.000000   
    344. D(H  29,C  17,C   7,N   2)    178.0613         0.000000   
    345. D(C   8,C  17,C   7,C  16)    174.9040         0.000000   
    346. D(C   8,C  17,C   7,N   2)     -3.3131         0.000000   
    347. D(H  30,C  18,C   8,C  17)     -4.3098         0.000000   
    348. D(H  30,C  18,C   8,N   3)    179.2208         0.000000   
    349. D(C  19,C  18,C   8,C  17)    175.2343         0.000000   
    350. D(C  19,C  18,C   8,N   3)     -1.2351         0.000000   
    351. D(H  31,C  19,C  18,H  30)      0.0324         0.000000   
    352. D(H  31,C  19,C  18,C   8)   -179.4836         0.000000   
    353. D(C   9,C  19,C  18,H  30)   -179.8158         0.000000   
    354. D(C   9,C  19,C  18,C   8)      0.6682         0.000000   
    355. D(H  31,C  19,C   9,C  20)      0.1370         0.000000   
    356. D(H  31,C  19,C   9,N   3)   -179.7733         0.000000   
    357. D(C  18,C  19,C   9,C  20)    179.9935         0.000000   
    358. D(C  18,C  19,C   9,N   3)      0.0831         0.000000   
    359. D(H  32,C  20,C  12,C  24)     -3.4067         0.000000   
    360. D(H  32,C  20,C  12,N   5)   -178.7931         0.000000   
    361. D(C   9,C  20,C  12,C  24)    173.9034         0.000000   
    362. D(C   9,C  20,C  12,N   5)     -1.4830         0.000000   
    363. D(H  32,C  20,C   9,C  19)      0.9890         0.000000   
    364. D(H  32,C  20,C   9,N   3)   -179.1140         0.000000   
    365. D(C  12,C  20,C   9,C  19)   -176.3171         0.000000   
    366. D(C  12,C  20,C   9,N   3)      3.5799         0.000000   
    367. D(C  10,C  21,C  13,N   5)     -4.3563         0.000000   
    368. D(H  33,C  21,C  10,C  22)      4.0227         0.000000   
    369. D(H  33,C  21,C  10,N   4)    179.7303         0.000000   
    370. D(C  13,C  21,C  10,C  22)   -173.6593         0.000000   
    371. D(C  13,C  21,C  10,N   4)      2.0482         0.000000   
    372. D(H  33,C  21,C  13,C  25)     -3.4918         0.000000   
    373. D(H  33,C  21,C  13,N   5)    177.9596         0.000000   
    374. D(C  10,C  21,C  13,C  25)    174.1923         0.000000   
    375. D(H  34,C  22,C  10,C  21)     -4.1935         0.000000   
    376. D(H  34,C  22,C  10,N   4)    179.5512         0.000000   
    377. D(C  23,C  22,C  10,C  21)    175.0065         0.000000   
    378. D(C  23,C  22,C  10,N   4)     -1.2488         0.000000   
    379. D(H  35,C  23,C  22,H  34)     -0.3161         0.000000   
    380. D(H  35,C  23,C  22,C  10)   -179.4696         0.000000   
    381. D(C  11,C  23,C  22,H  34)   -179.7894         0.000000   
    382. D(C  11,C  23,C  22,C  10)      1.0570         0.000000   
    383. D(H  35,C  23,C  11,C  14)     -1.5995         0.000000   
    384. D(H  35,C  23,C  11,N   4)    179.9280         0.000000   
    385. D(C  22,C  23,C  11,C  14)    177.9019         0.000000   
    386. D(C  22,C  23,C  11,N   4)     -0.5706         0.000000   
    387. D(H  36,C  24,C  12,C  20)      4.1745         0.000000   
    388. D(H  36,C  24,C  12,N   5)   -179.8160         0.000000   
    389. D(C  25,C  24,C  12,C  20)   -174.7581         0.000000   
    390. D(C  25,C  24,C  12,N   5)      1.2514         0.000000   
    391. D(H  37,C  25,C  24,H  36)      0.4494         0.000000   
    392. D(H  37,C  25,C  24,C  12)    179.3225         0.000000   
    393. D(C  13,C  25,C  24,H  36)   -179.9869         0.000000   
    394. D(C  13,C  25,C  24,C  12)     -1.1138         0.000000   
    395. D(H  37,C  25,C  13,C  21)      1.5052         0.000000   
    396. D(H  37,C  25,C  13,N   5)   -179.7546         0.000000   
    397. D(C  24,C  25,C  13,C  21)   -178.0820         0.000000   
    398. D(C  24,C  25,C  13,N   5)      0.6583         0.000000   
    399. D(C  40,N  38,Fe  1,N   2)    -61.4277         0.000000   
    400. D(C  40,N  38,Fe  1,C   0)   -133.0391         0.000000   
    401. D(C  39,N  38,Fe  1,N   5)    -61.2064         0.000000   
    402. D(C  39,N  38,Fe  1,N   4)     27.8421         0.000000   
    403. D(C  39,N  38,Fe  1,N   3)   -151.7556         0.000000   
    404. D(C  39,N  38,Fe  1,N   2)    118.7572         0.000000   
    405. D(C  39,N  38,Fe  1,C   0)     47.1458         0.000000   
    406. D(N  42,C  39,N  38,C  40)     -0.0992         0.000000   
    407. D(N  42,C  39,N  38,Fe  1)    179.7474         0.000000   
    408. D(H  41,C  39,N  38,C  40)   -179.9664         0.000000   
    409. D(H  41,C  39,N  38,Fe  1)     -0.1198         0.000000   
    410. D(H  44,C  40,N  38,C  39)   -179.9428         0.000000   
    411. D(H  44,C  40,N  38,Fe  1)      0.2137         0.000000   
    412. D(C  43,C  40,N  38,C  39)      0.0231         0.000000   
    413. D(C  43,C  40,N  38,Fe  1)   -179.8205         0.000000   
    414. D(H  45,N  42,C  39,H  41)     -0.0387         0.000000   
    415. D(H  45,N  42,C  39,N  38)   -179.9089         0.000000   
    416. D(C  43,N  42,C  39,H  41)   -179.9908         0.000000   
    417. D(C  43,N  42,C  39,N  38)      0.1389         0.000000   
    418. D(C  46,C  43,N  42,H  45)     -0.0319         0.000000   
    419. D(C  46,C  43,N  42,C  39)    179.9200         0.000000   
    420. D(C  40,C  43,N  42,H  45)    179.9306         0.000000   
    421. D(C  40,C  43,N  42,C  39)     -0.1175         0.000000   
    422. D(C  46,C  43,C  40,H  44)     -0.0208         0.000000   
    423. D(C  46,C  43,C  40,N  38)   -179.9837         0.000000   
    424. D(N  42,C  43,C  40,H  44)   -179.9787         0.000000   
    425. D(N  42,C  43,C  40,N  38)      0.0584         0.000000   
    426. D(H  49,C  46,C  43,C  40)   -119.7063         0.000000   
    427. D(H  48,C  46,C  43,N  42)    -60.1004         0.000000   
    428. D(H  48,C  46,C  43,C  40)    119.9483         0.000000   
    429. D(H  47,C  46,C  43,N  42)   -179.9510         0.000000   
    430. D(H  47,C  46,C  43,C  40)      0.0978         0.000000   
    431. D(N  58,C  50,C   0,C  60)    -33.4360         0.000000   
    432. D(N  58,C  50,C   0,Fe  1)    108.4228         0.000000   
    433. D(C  51,C  50,C   0,H  61)     41.0212         0.000000   
    434. D(C  51,C  50,C   0,C  60)    146.4241         0.000000   
    435. D(C  51,C  50,C   0,Fe  1)    -71.7171         0.000000   
    436. D(H  53,C  51,C  50,N  58)    178.5855         0.000000   
    437. D(H  53,C  51,C  50,C   0)     -1.2712         0.000000   
    438. D(C  52,C  51,C  50,N  58)     -2.0677         0.000000   
    439. D(C  52,C  51,C  50,C   0)    178.0756         0.000000   
    440. D(H  56,C  52,C  51,H  53)     -0.3303         0.000000   
    441. D(H  56,C  52,C  51,C  50)   -179.6714         0.000000   
    442. D(C  55,C  52,C  51,H  53)    178.8747         0.000000   
    443. D(C  55,C  52,C  51,C  50)     -0.4664         0.000000   
    444. D(H  57,C  55,C  54,N  58)   -179.7084         0.000000   
    445. D(C  52,C  55,C  54,Br 59)   -178.9685         0.000000   
    446. D(C  52,C  55,C  54,N  58)      0.0651         0.000000   
    447. D(H  57,C  55,C  52,H  56)      0.4254         0.000000   
    448. D(H  57,C  55,C  52,C  51)   -178.7826         0.000000   
    449. D(C  54,C  55,C  52,H  56)   -179.3466         0.000000   
    450. D(H  57,C  55,C  54,Br 59)      1.2579         0.000000   
    451. D(C  54,C  55,C  52,C  51)      1.4455         0.000000   
    452. D(C  50,N  58,C  54,Br 59)    176.4477         0.000000   
    453. D(C  50,N  58,C  54,C  55)     -2.6015         0.000000   
    454. D(C  54,N  58,C  50,C  51)      3.5391         0.000000   
    455. D(C  54,N  58,C  50,C   0)   -176.5967         0.000000   
    456. D(H  63,C  60,C   0,H  61)     54.8306         0.000000   
    457. D(H  63,C  60,C   0,C  50)    -49.6225         0.000000   
    458. D(H  63,C  60,C   0,Fe  1)    169.9981         0.000000   
    459. D(H  62,C  60,C   0,H  61)    172.3218         0.000000   
    460. D(H  62,C  60,C   0,C  50)     67.8687         0.000000   
    461. D(H  62,C  60,C   0,Fe  1)    -72.5107         0.000000   
    462. D(S  68,H  61,C   0,C  60)    -82.6274         0.000000   
    463. D(S  68,H  61,C   0,C  50)     32.8375         0.000000   
    464. D(S  68,H  61,C   0,Fe  1)    152.7989         0.000000   
    465. D(C  70,C  67,C  66,C  75)     -1.7845         0.000000   
    466. D(C  70,C  67,C  66,H  65)    179.3016         0.000000   
    467. D(S  68,C  67,C  66,C  75)    179.2110         0.000000   
    468. D(S  68,C  67,C  66,H  65)      0.2971         0.000000   
    469. D(H  61,S  68,C  67,C  70)    132.1422         0.000000   
    470. D(H  61,S  68,C  67,C  66)    -48.8535         0.000000   
    471. D(C  67,S  68,H  61,C   0)    138.2556         0.000000   
    472. D(C  72,C  70,C  67,S  68)    179.7469         0.000000   
    473. D(C  72,C  70,C  67,C  66)      0.7134         0.000000   
    474. D(H  69,C  70,C  67,S  68)     -1.5726         0.000000   
    475. D(H  69,C  70,C  67,C  66)    179.3939         0.000000   
    476. D(C  73,C  72,C  70,H  69)   -177.9680         0.000000   
    477. D(C  73,C  72,C  70,C  67)      0.6984         0.000000   
    478. D(H  71,C  72,C  70,H  69)      1.2016         0.000000   
    479. D(H  71,C  72,C  70,C  67)    179.8680         0.000000   
    480. D(C  75,C  73,C  72,H  71)    179.7933         0.000000   
    481. D(C  75,C  73,C  72,C  70)     -1.0419         0.000000   
    482. D(H  74,C  73,C  72,H  71)      0.0383         0.000000   
    483. D(H  74,C  73,C  72,C  70)    179.2030         0.000000   
    484. D(H  76,C  75,C  73,C  72)   -179.9382         0.000000   
    485. D(C  66,C  75,C  73,H  74)    179.7230         0.000000   
    486. D(C  66,C  75,C  73,C  72)     -0.0320         0.000000   
    487. D(H  76,C  75,C  66,C  67)   -178.6365         0.000000   
    488. D(H  76,C  75,C  66,H  65)      0.2730         0.000000   
    489. D(C  73,C  75,C  66,C  67)      1.4565         0.000000   
    490. D(H  76,C  75,C  73,H  74)     -0.1832         0.000000   
    491. D(C  73,C  75,C  66,H  65)   -179.6339         0.000000   
    -----------------------------------------------------------------

Number of atoms                         .... 77
Number of degrees of freedom            .... 491


         *************************************************************
         *                GEOMETRY OPTIMIZATION CYCLE   1            *
         *************************************************************
---------------------------------
CARTESIAN COORDINATES (ANGSTROEM)
---------------------------------
  C     -0.153892   -0.232228   -2.202008
  Fe     0.043862   -0.594856   -0.236340
  N      2.008382   -0.224308   -0.304492
  N      0.430424   -2.562148   -0.406852
  N     -0.345851    1.363873    0.036225
  N     -1.904651   -0.984957    0.044685
  C      2.612229    0.993070   -0.126687
  C      3.014373   -1.117290   -0.563292
  C      1.638153   -3.149782   -0.672564
  C     -0.469454   -3.585393   -0.295117
  C     -1.572819    1.969504    0.088628
  C      0.578357    2.368543    0.131895
  C     -2.482930   -2.224366    0.130146
  C     -2.931987   -0.078605    0.135144
  C      1.958208    2.201763    0.093806
  C      4.042112    0.864700   -0.273117
  C      4.290564   -0.447803   -0.559796
  C      2.850856   -2.482501   -0.767569
  C      1.494923   -4.585583   -0.760369
  C      0.183095   -4.858978   -0.515306
  C     -1.822933   -3.441306   -0.012692
  C     -2.792519    1.304423    0.116219
  C     -1.423408    3.402958    0.200817
  C     -0.083002    3.650565    0.243684
  C     -3.909183   -2.099914    0.297728
  C     -4.190688   -0.763211    0.284207
  H      2.576701    3.094947    0.197182
  H      4.749491    1.687562   -0.177925
  H      5.243460   -0.937712   -0.752142
  H      3.739745   -3.070274   -0.996706
  H      2.310260   -5.273912   -0.975305
  H     -0.319675   -5.824742   -0.483715
  H     -2.422848   -4.349851    0.061707
  H     -3.700555    1.907138    0.162532
  H     -2.251382    4.108571    0.252492
  H      0.431892    4.606236    0.333783
  H     -4.595732   -2.940073    0.393519
  H     -5.156589   -0.268033    0.372995
  N      0.278674   -0.784596    1.847586
  C     -0.307556   -0.035604    2.763607
  C      1.057044   -1.699585    2.521217
  H     -0.992734    0.785880    2.571392
  N      0.063388   -0.436550    4.001451
  C      0.938646   -1.499877    3.877323
  H      1.651984   -2.441232    1.996360
  H     -0.250988   -0.021688    4.872991
  C      1.553705   -2.196112    5.042944
  H      2.210580   -3.003298    4.690414
  H      2.157636   -1.505804    5.655769
  H      0.787523   -2.640831    5.700259
  C     -1.534340   -0.255877   -2.715981
  C     -2.276194   -1.447199   -2.853428
  C     -3.588877   -1.390404   -3.307900
  H     -1.820428   -2.400757   -2.593067
  C     -3.334643    0.958862   -3.463404
  C     -4.164370   -0.153337   -3.614953
  H     -4.175845   -2.306158   -3.413527
  H     -5.195095   -0.057465   -3.955628
  N     -2.089042    0.929626   -3.066358
  Br    -4.074957    2.709018   -3.841940
  C      0.690793    0.842579   -2.837120
  H      0.433534   -1.573893   -2.978848
  H      0.343606    1.844734   -2.536087
  H      0.599481    0.799080   -3.936541
  H      1.749790    0.755675   -2.570479
  H      2.807646   -0.625401   -4.050740
  C      3.245631   -1.621702   -3.983938
  C      2.407182   -2.747311   -3.941288
  S      0.635931   -2.603158   -4.000838
  H      2.336693   -4.903137   -3.826764
  C      2.985501   -4.025914   -3.870163
  H      4.808273   -5.175013   -3.769941
  C      4.373768   -4.173239   -3.827374
  C      5.204244   -3.046924   -3.840210
  H      6.290103   -3.162101   -3.793605
  C      4.632107   -1.772607   -3.918434
  H      5.269765   -0.884785   -3.930288

----------------------------
CARTESIAN COORDINATES (A.U.)
----------------------------
  NO LB      ZA    FRAG     MASS         X           Y           Z
   0 C     6.0000    0    12.011   -0.290814   -0.438847   -4.161192
   1 Fe   26.0000    0    55.850    0.082887   -1.124115   -0.446618
   2 N     7.0000    0    14.007    3.795292   -0.423881   -0.575406
   3 N     7.0000    0    14.007    0.813383   -4.841758   -0.768839
   4 N     7.0000    0    14.007   -0.653564    2.577346    0.068455
   5 N     7.0000    0    14.007   -3.599269   -1.861299    0.084442
   6 C     6.0000    0    12.011    4.936397    1.876630   -0.239404
   7 C     6.0000    0    12.011    5.696339   -2.111372   -1.064468
   8 C     6.0000    0    12.011    3.095661   -5.952225   -1.270962
   9 C     6.0000    0    12.011   -0.887139   -6.775411   -0.557690
  10 C     6.0000    0    12.011   -2.972197    3.721823    0.167483
  11 C     6.0000    0    12.011    1.092936    4.475898    0.249245
  12 C     6.0000    0    12.011   -4.692058   -4.203443    0.245940
  13 C     6.0000    0    12.011   -5.540652   -0.148542    0.255385
  14 C     6.0000    0    12.011    3.700477    4.160729    0.177268
  15 C     6.0000    0    12.011    7.638485    1.634046   -0.516116
  16 C     6.0000    0    12.011    8.107991   -0.846225   -1.057861
  17 C     6.0000    0    12.011    5.387337   -4.691247   -1.450495
  18 C     6.0000    0    12.011    2.824995   -8.665496   -1.436889
  19 C     6.0000    0    12.011    0.345999   -9.182138   -0.973787
  20 C     6.0000    0    12.011   -3.444844   -6.503126   -0.023984
  21 C     6.0000    0    12.011   -5.277096    2.465002    0.219622
  22 C     6.0000    0    12.011   -2.689851    6.430659    0.379489
  23 C     6.0000    0    12.011   -0.156851    6.898568    0.460496
  24 C     6.0000    0    12.011   -7.387285   -3.968262    0.562624
  25 C     6.0000    0    12.011   -7.919253   -1.442260    0.537073
  26 H     1.0000    0     1.008    4.869259    5.848602    0.372620
  27 H     1.0000    0     1.008    8.975237    3.189030   -0.336230
  28 H     1.0000    0     1.008    9.908703   -1.772019   -1.421342
  29 H     1.0000    0     1.008    7.067094   -5.801977   -1.883501
  30 H     1.0000    0     1.008    4.365759   -9.966249   -1.843059
  31 H     1.0000    0     1.008   -0.604098  -11.007167   -0.914089
  32 H     1.0000    0     1.008   -4.578519   -8.220027    0.116609
  33 H     1.0000    0     1.008   -6.993035    3.603969    0.307141
  34 H     1.0000    0     1.008   -4.254495    7.764074    0.477141
  35 H     1.0000    0     1.008    0.816158    8.704525    0.630758
  36 H     1.0000    0     1.008   -8.684675   -5.555933    0.743643
  37 H     1.0000    0     1.008   -9.744541   -0.506509    0.704858
  38 N     7.0000    0    14.007    0.526618   -1.482672    3.491432
  39 C     6.0000    0    12.011   -0.581197   -0.067282    5.222460
  40 C     6.0000    0    12.011    1.997524   -3.211750    4.764410
  41 H     1.0000    0     1.008   -1.875995    1.485098    4.859227
  42 N     7.0000    0    14.007    0.119786   -0.824960    7.561647
  43 C     6.0000    0    12.011    1.773784   -2.834357    7.327079
  44 H     1.0000    0     1.008    3.121797   -4.613260    3.772574
  45 H     1.0000    0     1.008   -0.474299   -0.040984    9.208618
  46 C     6.0000    0    12.011    2.936077   -4.150050    9.529783
  47 H     1.0000    0     1.008    4.177391   -5.675411    8.863598
  48 H     1.0000    0     1.008    4.077341   -2.845557   10.687854
  49 H     1.0000    0     1.008    1.488203   -4.990447   10.771928
  50 C     6.0000    0    12.011   -2.899482   -0.483537   -5.132460
  51 C     6.0000    0    12.011   -4.301383   -2.734810   -5.392197
  52 C     6.0000    0    12.011   -6.781995   -2.627483   -6.251025
  53 H     1.0000    0     1.008   -3.440110   -4.536773   -4.900186
  54 C     6.0000    0    12.011   -6.301562    1.811987   -6.544885
  55 C     6.0000    0    12.011   -7.869519   -0.289765   -6.831271
  56 H     1.0000    0     1.008   -7.891203   -4.358007   -6.450631
  57 H     1.0000    0     1.008   -9.817307   -0.108593   -7.475054
  58 N     7.0000    0    14.007   -3.947717    1.756739   -5.794577
  59 Br   35.0000    0    79.900   -7.700553    5.119302   -7.260214
  60 C     6.0000    0    12.011    1.305410    1.592244   -5.361380
  61 H     1.0000    0     1.008    0.819261   -2.974227   -5.629207
  62 H     1.0000    0     1.008    0.649321    3.486042   -4.792510
  63 H     1.0000    0     1.008    1.132855    1.510042   -7.438984
  64 H     1.0000    0     1.008    3.306624    1.428019   -4.857501
  65 H     1.0000    0     1.008    5.305682   -1.181837   -7.654789
  66 C     6.0000    0    12.011    6.133354   -3.064573   -7.528552
  67 C     6.0000    0    12.011    4.548915   -5.191665   -7.447955
  68 S    16.0000    0    32.060    1.201735   -4.919256   -7.560488
  69 H     1.0000    0     1.008    4.415710   -9.265586   -7.231536
  70 C     6.0000    0    12.011    5.641779   -7.607875   -7.313548
  71 H     1.0000    0     1.008    9.086319   -9.779357   -7.124156
  72 C     6.0000    0    12.011    8.265224   -7.886279   -7.232689
  73 C     6.0000    0    12.011    9.834596   -5.757852   -7.256945
  74 H     1.0000    0     1.008   11.886572   -5.975505   -7.168875
  75 C     6.0000    0    12.011    8.753414   -3.349742   -7.404767
  76 H     1.0000    0     1.008    9.958413   -1.672001   -7.427168

--------------------------------
INTERNAL COORDINATES (ANGSTROEM)
--------------------------------
 C      0   0   0     0.000000000000     0.00000000     0.00000000
 Fe     1   0   0     2.008595628075     0.00000000     0.00000000
 N      2   1   0     2.000322310481    91.71372769     0.00000000
 N      2   1   3     2.012148686169    96.45930917   270.40865493
 N      2   1   3     2.015635680632    86.43727168    90.72475989
 N      2   1   3     2.006952105058    94.38960577   179.42809510
 C      3   2   1     1.370494440820   126.35929651    89.44815079
 C      3   2   1     1.369821953542   127.36770524   270.94099956
 C      4   2   1     1.369133274134   127.26809964    83.19385180
 C      4   2   1     1.367221801733   126.75228447   264.01731910
 C      5   2   1     1.369301082886   127.46145849    83.27140750
 C      5   2   1     1.368457154998   126.32114228   267.20792048
 C      6   2   1     1.370344793708   126.45865219    99.85762347
 C      6   2   1     1.372980711984   127.40004915   282.75351086
 C     12   5   2     1.390415449613   125.46853168   358.09522376
 C      7   3   2     1.443082116683   110.14478735   181.04345555
 C     16   7   3     1.366227422633   106.67475603     0.77535326
 C      9   4   2     1.387421511003   125.30241907     5.53380192
 C      9   4   2     1.445596438335   110.52898900   181.95000071
 C     19   9   4     1.362238379131   106.48846416   358.76485994
 C     10   4   2     1.390118825006   125.44084703   358.57351009
 C     11   5   2     1.389518654010   125.14197605     7.96145725
 C     11   5   2     1.445579603051   110.42240500   184.17934014
 C     23  11   5     1.363757695111   106.50303823   358.75115636
 C     13   6   2     1.441447067026   110.28614765   181.56764490
 C     25  13   6     1.366090331082   106.69185155     1.25140193
 H     15  12   5     1.091328477719   117.49438673   180.90489267
 H     16   7   3     1.089288041589   124.56846203   180.03678167
 H     17  16   7     1.088585595538   128.94733967   179.14795201
 H     18   9   4     1.090002072759   117.89447411   180.71986781
 H     19   9   4     1.088470817205   124.46293416   179.22075851
 H     20  19   9     1.089254684579   128.87706135   180.51638485
 H     21  10   4     1.091277799394   117.56813383   180.88597475
 H     22  11   5     1.090843546293   117.84405214   179.73029192
 H     23  11   5     1.089082621324   124.58075761   179.55115418
 H     24  23  11     1.089284499696   128.79146554   180.53040277
 H     25  13   6     1.089216502980   124.56206097   180.18402014
 H     26  25  13     1.089058906776   128.81876937   179.32253738
 N      2   1   3     2.105679347959   174.72507598    71.38836230
 C     39   2   3     1.320510924379   125.86697578   118.75721206
 C     39   2   3     1.377259398654   127.36885377   298.57234949
 H     40  39   2     1.086853927704   125.86653383   359.88017833
 N     40  39   2     1.353002185655   110.17262451   179.74737265
 C     41  39   2     1.375836056696   109.69585198   180.17951084
 H     41  39   2     1.086033492420   121.79676867     0.21365519
 H     43  40  39     1.015147634593   125.41210285   180.09110444
 C     44  41  39     1.490541198474   131.87331786   180.01631298
 H     47  44  41     1.098777231800   109.81174721     0.09775208
 H     47  44  41     1.103092139511   111.59573986   119.94831204
 H     47  44  41     1.103119601544   111.57282840   240.29368321
 C      1   2   3     1.473215598829   115.51696194   185.11370773
 C     51   1   2     1.410137278001   122.71945947   288.28290790
 C     52  51   1     1.390290303965   119.60842655   178.07557486
 H     52  51   1     1.088477540623   119.76947350   358.72882758
 C     51   1   2     2.296807103537   147.08870090   105.31040915
 C     55  51   1     1.395851213250    94.57995340   183.44466612
 H     53  52  51     1.092837538095   120.29726443   180.32856355
 H     56  55  51     1.089791228463   121.73897626   178.94813631
 N     55  51   1     1.307678141216    30.99088777     5.56787304
 Br    55  51   1     1.937627504509   147.22086400   359.68034532
 C      1   2   3     1.507338743952   119.07161165   324.51100624
 H      1   2   3     1.657894647829   106.11521388    76.61276800
 H     61   1   2     1.102485521031   110.89394207   287.48929939
 H     61   1   2     1.104063666455   110.19002249   169.99809854
 H     61   1   2     1.095501882292   112.49416759    48.64067592
 H     65  61   1     2.284207272257   109.75004985    88.16566680
 C     66  65  61     1.090371060708   134.32930737   249.15569020
 C     67  66  65     1.404212009984   119.63383347    75.36809743
 S     62   1   2     1.464518537245   160.85622714   152.79886949
 H     68  67  66     2.160016247155   145.19862040   179.76999262
 C     70  68  67     1.091950312878    34.58418007   359.07140726
 H     71  70  68     2.157074575686    94.14529044   179.21352055
 C     72  71  70     1.093455207857    34.28238971   181.04012985
 C     73  72  71     1.399442970863   120.13369578   179.17109620
 H     74  73  72     1.092944433736   120.29020676     0.03825035
 C     67  66  65     1.396201558378   120.03431186   256.45101934
 H     76  67  66     1.093149644817   119.40425917     0.27300738

---------------------------
INTERNAL COORDINATES (A.U.)
---------------------------
 C      0   0   0     0.000000000000     0.00000000     0.00000000
 Fe     1   0   0     3.795695650854     0.00000000     0.00000000
 N      2   1   0     3.780061346382    91.71372769     0.00000000
 N      2   1   3     3.802409957589    96.45930917   270.40865493
 N      2   1   3     3.808999422154    86.43727168    90.72475989
 N      2   1   3     3.792589842456    94.38960577   179.42809510
 C      3   2   1     2.589859161211   126.35929651    89.44815079
 C      3   2   1     2.588588344427   127.36770524   270.94099956
 C      4   2   1     2.587286928952   127.26809964    83.19385180
 C      4   2   1     2.583674769602   126.75228447   264.01731910
 C      5   2   1     2.587604041537   127.46145849    83.27140750
 C      5   2   1     2.586009248950   126.32114228   267.20792048
 C      6   2   1     2.589576369153   126.45865219    99.85762347
 C      6   2   1     2.594557532807   127.40004915   282.75351086
 C     12   5   2     2.627504412141   125.46853168   358.09522376
 C      7   3   2     2.727029989289   110.14478735   181.04345555
 C     16   7   3     2.581795665429   106.67475603     0.77535326
 C      9   4   2     2.621846688108   125.30241907     5.53380192
 C      9   4   2     2.731781368625   110.52898900   181.95000071
 C     19   9   4     2.574257465675   106.48846416   358.76485994
 C     10   4   2     2.626943872869   125.44084703   358.57351009
 C     11   5   2     2.625809714054   125.14197605     7.96145725
 C     11   5   2     2.731749554550   110.42240500   184.17934014
 C     23  11   5     2.577128556787   106.50303823   358.75115636
 C     13   6   2     2.723940193223   110.28614765   181.56764490
 C     25  13   6     2.581536599942   106.69185155     1.25140193
 H     15  12   5     2.062311945039   117.49438673   180.90489267
 H     16   7   3     2.058456079559   124.56846203   180.03678167
 H     17  16   7     2.057128648899   128.94733967   179.14795201
 H     18   9   4     2.059805402921   117.89447411   180.71986781
 H     19   9   4     2.056911749282   124.46293416   179.22075851
 H     20  19   9     2.058393043945   128.87706135   180.51638485
 H     21  10   4     2.062216176884   117.56813383   180.88597475
 H     22  11   5     2.061395557450   117.84405214   179.73029192
 H     23  11   5     2.058067891515   124.58075761   179.55115418
 H     24  23  11     2.058449386351   128.79146554   180.53040277
 H     25  13   6     2.058320891179   124.56206097   180.18402014
 H     26  25  13     2.058023077515   128.81876937   179.32253738
 N      2   1   3     3.979157293496   174.72507598    71.38836230
 C     39   2   3     2.495404003928   125.86697578   118.75721206
 C     39   2   3     2.602643078826   127.36885377   298.57234949
 H     40  39   2     2.053856270937   125.86653383   359.88017833
 N     40  39   2     2.556803589485   110.17262451   179.74737265
 C     41  39   2     2.599953352329   109.69585198   180.17951084
 H     41  39   2     2.052305872940   121.79676867     0.21365519
 H     43  40  39     1.918351014879   125.41210285   180.09110444
 C     44  41  39     2.816714656442   131.87331786   180.01631298
 H     47  44  41     2.076388050289   109.81174721     0.09775208
 H     47  44  41     2.084542044156   111.59573986   119.94831204
 H     47  44  41     2.084593939878   111.57282840   240.29368321
 C      1   2   3     2.783974018008   115.51696194   185.11370773
 C     51   1   2     2.664773266656   122.71945947   288.28290790
 C     52  51   1     2.627267921139   119.60842655   178.07557486
 H     52  51   1     2.056924454702   119.76947350   358.72882758
 C     51   1   2     4.340336408130   147.08870090   105.31040915
 C     55  51   1     2.637776516744    94.57995340   183.44466612
 H     53  52  51     2.065163655868   120.29726443   180.32856355
 H     56  55  51     2.059406964944   121.73897626   178.94813631
 N     55  51   1     2.471153558213    30.99088777     5.56787304
 Br    55  51   1     3.661585333074   147.22086400   359.68034532
 C      1   2   3     2.848457417118   119.07161165   324.51100624
 H      1   2   3     3.132966843291   106.11521388    76.61276800
 H     61   1   2     2.083395701362   110.89394207   287.48929939
 H     61   1   2     2.086377964013   110.19002249   169.99809854
 H     61   1   2     2.070198536728   112.49416759    48.64067592
 H     65  61   1     4.316526177678   109.75004985    88.16566680
 C     66  65  61     2.060502689092   134.32930737   249.15569020
 C     67  66  65     2.653576132832   119.63383347    75.36809743
 S     62   1   2     2.767538953444   160.85622714   152.79886949
 H     68  67  66     4.081839151943   145.19862040   179.76999262
 C     70  68  67     2.063487043189    34.58418007   359.07140726
 H     71  70  68     4.076280198490    94.14529044   179.21352055
 C     72  71  70     2.066330882560    34.28238971   181.04012985
 C     73  72  71     2.644563954972   120.13369578   179.17109620
 H     74  73  72     2.065365659355   120.29020676     0.03825035
 C     67  66  65     2.638438573088   120.03431186   256.45101934
 H     76  67  66     2.065753452098   119.40425917     0.27300738

---------------------
BASIS SET INFORMATION
---------------------
There are 6 groups of distinct atoms

 Group   1 Type C   : 7s4p1d contracted to 3s2p1d pattern {511/31/1}
 Group   2 Type Fe  : 17s11p7d1f contracted to 6s4p4d1f pattern {842111/6311/4111/1}
 Group   3 Type N   : 7s4p1d contracted to 3s2p1d pattern {511/31/1}
 Group   4 Type H   : 4s1p contracted to 2s1p pattern {31/1}
 Group   5 Type Br  : 14s10p6d contracted to 5s4p3d pattern {63311/5311/411}
 Group   6 Type S   : 10s7p1d contracted to 4s3p1d pattern {5311/511/1}

Atom   0C    basis set group =>   1
Atom   1Fe   basis set group =>   2
Atom   2N    basis set group =>   3
Atom   3N    basis set group =>   3
Atom   4N    basis set group =>   3
Atom   5N    basis set group =>   3
Atom   6C    basis set group =>   1
Atom   7C    basis set group =>   1
Atom   8C    basis set group =>   1
Atom   9C    basis set group =>   1
Atom  10C    basis set group =>   1
Atom  11C    basis set group =>   1
Atom  12C    basis set group =>   1
Atom  13C    basis set group =>   1
Atom  14C    basis set group =>   1
Atom  15C    basis set group =>   1
Atom  16C    basis set group =>   1
Atom  17C    basis set group =>   1
Atom  18C    basis set group =>   1
Atom  19C    basis set group =>   1
Atom  20C    basis set group =>   1
Atom  21C    basis set group =>   1
Atom  22C    basis set group =>   1
Atom  23C    basis set group =>   1
Atom  24C    basis set group =>   1
Atom  25C    basis set group =>   1
Atom  26H    basis set group =>   4
Atom  27H    basis set group =>   4
Atom  28H    basis set group =>   4
Atom  29H    basis set group =>   4
Atom  30H    basis set group =>   4
Atom  31H    basis set group =>   4
Atom  32H    basis set group =>   4
Atom  33H    basis set group =>   4
Atom  34H    basis set group =>   4
Atom  35H    basis set group =>   4
Atom  36H    basis set group =>   4
Atom  37H    basis set group =>   4
Atom  38N    basis set group =>   3
Atom  39C    basis set group =>   1
Atom  40C    basis set group =>   1
Atom  41H    basis set group =>   4
Atom  42N    basis set group =>   3
Atom  43C    basis set group =>   1
Atom  44H    basis set group =>   4
Atom  45H    basis set group =>   4
Atom  46C    basis set group =>   1
Atom  47H    basis set group =>   4
Atom  48H    basis set group =>   4
Atom  49H    basis set group =>   4
Atom  50C    basis set group =>   1
Atom  51C    basis set group =>   1
Atom  52C    basis set group =>   1
Atom  53H    basis set group =>   4
Atom  54C    basis set group =>   1
Atom  55C    basis set group =>   1
Atom  56H    basis set group =>   4
Atom  57H    basis set group =>   4
Atom  58N    basis set group =>   3
Atom  59Br   basis set group =>   5
Atom  60C    basis set group =>   1
Atom  61H    basis set group =>   4
Atom  62H    basis set group =>   4
Atom  63H    basis set group =>   4
Atom  64H    basis set group =>   4
Atom  65H    basis set group =>   4
Atom  66C    basis set group =>   1
Atom  67C    basis set group =>   1
Atom  68S    basis set group =>   6
Atom  69H    basis set group =>   4
Atom  70C    basis set group =>   1
Atom  71H    basis set group =>   4
Atom  72C    basis set group =>   1
Atom  73C    basis set group =>   1
Atom  74H    basis set group =>   4
Atom  75C    basis set group =>   1
Atom  76H    basis set group =>   4
---------------------------------
AUXILIARY/J BASIS SET INFORMATION
---------------------------------
There are 6 groups of distinct atoms

 Group   1 Type C   : 12s5p4d2f1g contracted to 6s4p3d1f1g pattern {711111/2111/211/2/1}
 Group   2 Type Fe  : 19s5p5d3f3g contracted to 8s5p5d2f3g pattern {121111111/11111/11111/21/111}
 Group   3 Type N   : 12s5p4d2f1g contracted to 6s4p3d1f1g pattern {711111/2111/211/2/1}
 Group   4 Type H   : 5s2p1d contracted to 3s1p1d pattern {311/2/1}
 Group   5 Type Br  : 19s5p5d3f1g contracted to 8s4p3d2f1g pattern {121111111/2111/311/21/1}
 Group   6 Type S   : 14s5p5d2f1g contracted to 8s4p3d1f1g pattern {71111111/2111/311/2/1}

Atom   0C    basis set group =>   1
Atom   1Fe   basis set group =>   2
Atom   2N    basis set group =>   3
Atom   3N    basis set group =>   3
Atom   4N    basis set group =>   3
Atom   5N    basis set group =>   3
Atom   6C    basis set group =>   1
Atom   7C    basis set group =>   1
Atom   8C    basis set group =>   1
Atom   9C    basis set group =>   1
Atom  10C    basis set group =>   1
Atom  11C    basis set group =>   1
Atom  12C    basis set group =>   1
Atom  13C    basis set group =>   1
Atom  14C    basis set group =>   1
Atom  15C    basis set group =>   1
Atom  16C    basis set group =>   1
Atom  17C    basis set group =>   1
Atom  18C    basis set group =>   1
Atom  19C    basis set group =>   1
Atom  20C    basis set group =>   1
Atom  21C    basis set group =>   1
Atom  22C    basis set group =>   1
Atom  23C    basis set group =>   1
Atom  24C    basis set group =>   1
Atom  25C    basis set group =>   1
Atom  26H    basis set group =>   4
Atom  27H    basis set group =>   4
Atom  28H    basis set group =>   4
Atom  29H    basis set group =>   4
Atom  30H    basis set group =>   4
Atom  31H    basis set group =>   4
Atom  32H    basis set group =>   4
Atom  33H    basis set group =>   4
Atom  34H    basis set group =>   4
Atom  35H    basis set group =>   4
Atom  36H    basis set group =>   4
Atom  37H    basis set group =>   4
Atom  38N    basis set group =>   3
Atom  39C    basis set group =>   1
Atom  40C    basis set group =>   1
Atom  41H    basis set group =>   4
Atom  42N    basis set group =>   3
Atom  43C    basis set group =>   1
Atom  44H    basis set group =>   4
Atom  45H    basis set group =>   4
Atom  46C    basis set group =>   1
Atom  47H    basis set group =>   4
Atom  48H    basis set group =>   4
Atom  49H    basis set group =>   4
Atom  50C    basis set group =>   1
Atom  51C    basis set group =>   1
Atom  52C    basis set group =>   1
Atom  53H    basis set group =>   4
Atom  54C    basis set group =>   1
Atom  55C    basis set group =>   1
Atom  56H    basis set group =>   4
Atom  57H    basis set group =>   4
Atom  58N    basis set group =>   3
Atom  59Br   basis set group =>   5
Atom  60C    basis set group =>   1
Atom  61H    basis set group =>   4
Atom  62H    basis set group =>   4
Atom  63H    basis set group =>   4
Atom  64H    basis set group =>   4
Atom  65H    basis set group =>   4
Atom  66C    basis set group =>   1
Atom  67C    basis set group =>   1
Atom  68S    basis set group =>   6
Atom  69H    basis set group =>   4
Atom  70C    basis set group =>   1
Atom  71H    basis set group =>   4
Atom  72C    basis set group =>   1
Atom  73C    basis set group =>   1
Atom  74H    basis set group =>   4
Atom  75C    basis set group =>   1
Atom  76H    basis set group =>   4


           ************************************************************
           *        Program running with 16 parallel MPI-processes    *
           *              working on a common directory               *
           ************************************************************
------------------------------------------------------------------------------
                             ORCA STARTUP CALCULATIONS
                           -- RI-GTO INTEGRALS CHOSEN --
------------------------------------------------------------------------------
------------------------------------------------------------------------------
                   ___                                                        
                  /   \      - P O W E R E D   B Y -                         
                 /     \                                                     
                 |  |  |   _    _      __       _____    __    __             
                 |  |  |  | |  | |    /  \     |  _  \  |  |  /  |          
                  \  \/   | |  | |   /    \    | | | |  |  | /  /          
                 / \  \   | |__| |  /  /\  \   | |_| |  |  |/  /          
                |  |  |   |  __  | /  /__\  \  |    /   |      \           
                |  |  |   | |  | | |   __   |  |    \   |  |\   \          
                \     /   | |  | | |  |  |  |  | |\  \  |  | \   \       
                 \___/    |_|  |_| |__|  |__|  |_| \__\ |__|  \__/        
                                                                              
                      - O R C A' S   B I G   F R I E N D -                    
                                      &                                       
                       - I N T E G R A L  F E E D E R -                       
                                                                              
 v1 FN, 2020, v2 2021, v3 2022-2024                                           
------------------------------------------------------------------------------


----------------------
SHARK INTEGRAL PACKAGE
----------------------

Number of atoms                             ...     77
Number of basis functions                   ...    861
Number of shells                            ...    389
Maximum angular momentum                    ...      3
Integral batch strategy                     ... SHARK/LIBINT Hybrid
RI-J (if used) integral strategy            ... SPLIT-RIJ (Revised 2003 algorithm where possible)
Printlevel                                  ...      1
Contraction scheme used                     ... SEGMENTED contraction
Prescreening option                         ... SCHWARTZ
   Thresh                                   ... 2.500e-11
   Tcut                                     ... 2.500e-12
   Tpresel                                  ... 2.500e-12 
Coulomb Range Separation                    ... NOT USED
Exchange Range Separation                   ... NOT USED
Multipole approximations                    ... NOT USED
Finite Nucleus Model                        ... NOT USED
CABS basis                                  ... NOT available
Auxiliary Coulomb fitting basis             ... AVAILABLE
   # of basis functions in Aux-J            ...   2684
   # of shells in Aux-J                     ...    868
   Maximum angular momentum in Aux-J        ...      4
Auxiliary J/K fitting basis                 ... NOT available
Auxiliary Correlation fitting basis         ... NOT available
Auxiliary 'external' fitting basis          ... NOT available

Checking pre-screening integrals            ... done (  0.0 sec) Dimension = 389
Check shell pair data                       ... done (  0.0 sec)
Shell pair information
Shell pair cut-off parameter TPreSel        ...   2.5e-12
Total number of shell pairs                 ...     75855
Shell pairs after pre-screening             ...     48713
Total number of primitive shell pairs       ...    291487
Primitive shell pairs kept                  ...    107560
          la=0 lb=0:  14267 shell pairs
          la=1 lb=0:  17820 shell pairs
          la=1 lb=1:   5649 shell pairs
          la=2 lb=0:   6147 shell pairs
          la=2 lb=1:   3928 shell pairs
          la=2 lb=2:    641 shell pairs
          la=3 lb=0:    139 shell pairs
          la=3 lb=1:     91 shell pairs
          la=3 lb=2:     30 shell pairs
          la=3 lb=3:      1 shell pairs

[...]
freq.     164.06  E(vib)   ...       0.39 
freq.     165.30  E(vib)   ...       0.39 
freq.     177.92  E(vib)   ...       0.37 
freq.     185.46  E(vib)   ...       0.37 
freq.     208.05  E(vib)   ...       0.34 
freq.     215.83  E(vib)   ...       0.34 
freq.     218.35  E(vib)   ...       0.33 
freq.     220.16  E(vib)   ...       0.33 
freq.     234.70  E(vib)   ...       0.32 
freq.     256.18  E(vib)   ...       0.30 
freq.     263.15  E(vib)   ...       0.29 
freq.     279.49  E(vib)   ...       0.28 
freq.     282.57  E(vib)   ...       0.28 
freq.     291.93  E(vib)   ...       0.27 
freq.     293.78  E(vib)   ...       0.27 
freq.     297.34  E(vib)   ...       0.27 
freq.     299.07  E(vib)   ...       0.26 
freq.     300.83  E(vib)   ...       0.26 
freq.     310.00  E(vib)   ...       0.26 
freq.     325.54  E(vib)   ...       0.24 
freq.     331.22  E(vib)   ...       0.24 
freq.     359.01  E(vib)   ...       0.22 
freq.     365.08  E(vib)   ...       0.22 
freq.     367.70  E(vib)   ...       0.21 
freq.     368.14  E(vib)   ...       0.21 
freq.     372.57  E(vib)   ...       0.21 
freq.     389.05  E(vib)   ...       0.20 
freq.     412.77  E(vib)   ...       0.19 
freq.     413.84  E(vib)   ...       0.19 
freq.     422.86  E(vib)   ...       0.18 
freq.     427.46  E(vib)   ...       0.18 
freq.     430.43  E(vib)   ...       0.18 
freq.     435.16  E(vib)   ...       0.17 
freq.     441.31  E(vib)   ...       0.17 
freq.     443.89  E(vib)   ...       0.17 
freq.     450.18  E(vib)   ...       0.17 
freq.     466.29  E(vib)   ...       0.16 
freq.     482.26  E(vib)   ...       0.15 
freq.     488.45  E(vib)   ...       0.15 
freq.     591.47  E(vib)   ...       0.10 
freq.     607.66  E(vib)   ...       0.10 
freq.     628.21  E(vib)   ...       0.09 
freq.     639.12  E(vib)   ...       0.09 
freq.     659.59  E(vib)   ...       0.08 
freq.     673.49  E(vib)   ...       0.08 
freq.     679.98  E(vib)   ...       0.08 
freq.     683.16  E(vib)   ...       0.08 
freq.     684.28  E(vib)   ...       0.07 
freq.     686.14  E(vib)   ...       0.07 
freq.     689.06  E(vib)   ...       0.07 
freq.     700.89  E(vib)   ...       0.07 
freq.     705.61  E(vib)   ...       0.07 
freq.     711.25  E(vib)   ...       0.07 
freq.     715.67  E(vib)   ...       0.07 
freq.     726.10  E(vib)   ...       0.06 
freq.     727.09  E(vib)   ...       0.06 
freq.     730.25  E(vib)   ...       0.06 
freq.     735.17  E(vib)   ...       0.06 
freq.     740.41  E(vib)   ...       0.06 
freq.     747.39  E(vib)   ...       0.06 
freq.     755.16  E(vib)   ...       0.06 
freq.     758.26  E(vib)   ...       0.06 
freq.     761.61  E(vib)   ...       0.06 
freq.     766.56  E(vib)   ...       0.06 
freq.     797.42  E(vib)   ...       0.05 
freq.     804.26  E(vib)   ...       0.05 
freq.     807.20  E(vib)   ...       0.05 
freq.     808.69  E(vib)   ...       0.05 
freq.     811.08  E(vib)   ...       0.05 
freq.     812.45  E(vib)   ...       0.05 
freq.     812.81  E(vib)   ...       0.05 
freq.     814.40  E(vib)   ...       0.05 
freq.     829.69  E(vib)   ...       0.04 
freq.     836.79  E(vib)   ...       0.04 
freq.     847.96  E(vib)   ...       0.04 
freq.     849.73  E(vib)   ...       0.04 
freq.     858.72  E(vib)   ...       0.04 
freq.     878.98  E(vib)   ...       0.04 
freq.     884.47  E(vib)   ...       0.04 
freq.     887.73  E(vib)   ...       0.04 
freq.     896.35  E(vib)   ...       0.03 
freq.     928.52  E(vib)   ...       0.03 
freq.     930.94  E(vib)   ...       0.03 
freq.     939.85  E(vib)   ...       0.03 
freq.     942.79  E(vib)   ...       0.03 
freq.     943.42  E(vib)   ...       0.03 
freq.     945.39  E(vib)   ...       0.03 
freq.     946.24  E(vib)   ...       0.03 
freq.     968.38  E(vib)   ...       0.03 
freq.     982.89  E(vib)   ...       0.02 
freq.     996.85  E(vib)   ...       0.02 
freq.    1000.82  E(vib)   ...       0.02 
freq.    1010.97  E(vib)   ...       0.02 
freq.    1022.94  E(vib)   ...       0.02 
freq.    1023.15  E(vib)   ...       0.02 
freq.    1023.50  E(vib)   ...       0.02 
freq.    1023.90  E(vib)   ...       0.02 
freq.    1027.66  E(vib)   ...       0.02 
freq.    1028.52  E(vib)   ...       0.02 
freq.    1030.40  E(vib)   ...       0.02 
freq.    1033.52  E(vib)   ...       0.02 
freq.    1040.48  E(vib)   ...       0.02 
freq.    1045.12  E(vib)   ...       0.02 
freq.    1050.13  E(vib)   ...       0.02 
freq.    1050.41  E(vib)   ...       0.02 
freq.    1052.83  E(vib)   ...       0.02 
freq.    1059.52  E(vib)   ...       0.02 
freq.    1065.82  E(vib)   ...       0.02 
freq.    1066.28  E(vib)   ...       0.02 
freq.    1068.10  E(vib)   ...       0.02 
freq.    1072.94  E(vib)   ...       0.02 
freq.    1078.08  E(vib)   ...       0.02 
freq.    1085.19  E(vib)   ...       0.02 
freq.    1092.00  E(vib)   ...       0.02 
freq.    1101.99  E(vib)   ...       0.02 
freq.    1118.43  E(vib)   ...       0.01 
freq.    1136.93  E(vib)   ...       0.01 
freq.    1137.93  E(vib)   ...       0.01 
freq.    1143.69  E(vib)   ...       0.01 
freq.    1158.63  E(vib)   ...       0.01 
freq.    1172.76  E(vib)   ...       0.01 
freq.    1176.35  E(vib)   ...       0.01 
freq.    1178.35  E(vib)   ...       0.01 
freq.    1179.97  E(vib)   ...       0.01 
freq.    1182.18  E(vib)   ...       0.01 
freq.    1213.14  E(vib)   ...       0.01 
freq.    1213.92  E(vib)   ...       0.01 
freq.    1261.31  E(vib)   ...       0.01 
freq.    1272.33  E(vib)   ...       0.01 
freq.    1282.14  E(vib)   ...       0.01 
freq.    1286.67  E(vib)   ...       0.01 
freq.    1287.86  E(vib)   ...       0.01 
freq.    1314.94  E(vib)   ...       0.01 
freq.    1320.64  E(vib)   ...       0.01 
freq.    1342.14  E(vib)   ...       0.01 
freq.    1354.63  E(vib)   ...       0.01 
freq.    1356.51  E(vib)   ...       0.01 
freq.    1359.32  E(vib)   ...       0.01 
freq.    1366.09  E(vib)   ...       0.01 
freq.    1377.33  E(vib)   ...       0.01 
freq.    1386.00  E(vib)   ...       0.00 
freq.    1402.31  E(vib)   ...       0.00 
freq.    1404.02  E(vib)   ...       0.00 
freq.    1414.07  E(vib)   ...       0.00 
freq.    1417.62  E(vib)   ...       0.00 
freq.    1421.04  E(vib)   ...       0.00 
freq.    1422.67  E(vib)   ...       0.00 
freq.    1427.52  E(vib)   ...       0.00 
freq.    1432.54  E(vib)   ...       0.00 
freq.    1434.77  E(vib)   ...       0.00 
freq.    1437.82  E(vib)   ...       0.00 
freq.    1438.30  E(vib)   ...       0.00 
freq.    1453.56  E(vib)   ...       0.00 
freq.    1464.38  E(vib)   ...       0.00 
freq.    1468.89  E(vib)   ...       0.00 
freq.    1473.49  E(vib)   ...       0.00 
freq.    1491.90  E(vib)   ...       0.00 
freq.    1500.10  E(vib)   ...       0.00 
freq.    1502.90  E(vib)   ...       0.00 
freq.    1505.62  E(vib)   ...       0.00 
freq.    1539.27  E(vib)   ...       0.00 
freq.    1541.67  E(vib)   ...       0.00 
freq.    1550.48  E(vib)   ...       0.00 
freq.    1582.81  E(vib)   ...       0.00 
freq.    1584.72  E(vib)   ...       0.00 
freq.    1592.73  E(vib)   ...       0.00 
freq.    1613.89  E(vib)   ...       0.00 
freq.    1617.87  E(vib)   ...       0.00 
freq.    1625.52  E(vib)   ...       0.00 
freq.    1628.70  E(vib)   ...       0.00 
freq.    1630.59  E(vib)   ...       0.00 
freq.    1640.98  E(vib)   ...       0.00 
freq.    1645.83  E(vib)   ...       0.00 
freq.    1648.33  E(vib)   ...       0.00 
freq.    1690.28  E(vib)   ...       0.00 
freq.    3014.51  E(vib)   ...       0.00 
freq.    3025.50  E(vib)   ...       0.00 
freq.    3073.92  E(vib)   ...       0.00 
freq.    3091.32  E(vib)   ...       0.00 
freq.    3140.55  E(vib)   ...       0.00 
freq.    3156.53  E(vib)   ...       0.00 
freq.    3171.41  E(vib)   ...       0.00 
freq.    3180.26  E(vib)   ...       0.00 
freq.    3189.47  E(vib)   ...       0.00 
freq.    3192.08  E(vib)   ...       0.00 
freq.    3199.16  E(vib)   ...       0.00 
freq.    3201.39  E(vib)   ...       0.00 
freq.    3202.06  E(vib)   ...       0.00 
freq.    3207.03  E(vib)   ...       0.00 
freq.    3215.73  E(vib)   ...       0.00 
freq.    3217.04  E(vib)   ...       0.00 
freq.    3225.70  E(vib)   ...       0.00 
freq.    3229.36  E(vib)   ...       0.00 
freq.    3229.48  E(vib)   ...       0.00 
freq.    3231.12  E(vib)   ...       0.00 
freq.    3231.56  E(vib)   ...       0.00 
freq.    3232.58  E(vib)   ...       0.00 
freq.    3247.75  E(vib)   ...       0.00 
freq.    3247.93  E(vib)   ...       0.00 
freq.    3250.70  E(vib)   ...       0.00 
freq.    3251.73  E(vib)   ...       0.00 
freq.    3281.52  E(vib)   ...       0.00 
freq.    3285.89  E(vib)   ...       0.00 
freq.    3621.34  E(vib)   ...       0.00 

------------
INNER ENERGY
------------

The inner energy is: U= E(el) + E(ZPE) + E(vib) + E(rot) + E(trans)
    E(el)   - is the total energy from the electronic structure calculation
              = E(kin-el) + E(nuc-el) + E(el-el) + E(nuc-nuc)
    E(ZPE)  - the the zero temperature vibrational energy from the frequency calculation
    E(vib)  - the the finite temperature correction to E(ZPE) due to population
              of excited vibrational states
    E(rot)  - is the rotational thermal energy
    E(trans)- is the translational thermal energy

Summary of contributions to the inner energy U:
Electronic energy                ...  -6044.55572622 Eh
Zero point energy                ...      0.58781961 Eh     368.86 kcal/mol
Thermal vibrational correction   ...      0.03702729 Eh      23.23 kcal/mol
Thermal rotational correction    ...      0.00141627 Eh       0.89 kcal/mol
Thermal translational correction ...      0.00141627 Eh       0.89 kcal/mol
-----------------------------------------------------------------------
Total thermal energy                  -6043.92804678 Eh


Summary of corrections to the electronic energy:
(perhaps to be used in another calculation)
Total thermal correction                  0.03985983 Eh      25.01 kcal/mol
Non-thermal (ZPE) correction              0.58781961 Eh     368.86 kcal/mol
-----------------------------------------------------------------------
Total correction                          0.62767944 Eh     393.87 kcal/mol


--------
ENTHALPY
--------

The enthalpy is H = U + kB*T
                kB is Boltzmann's constant
Total thermal energy              ...  -6043.92804678 Eh 
Thermal Enthalpy correction       ...      0.00094421 Eh       0.59 kcal/mol
-----------------------------------------------------------------------
Total Enthalpy                    ...  -6043.92710257 Eh


Note: Only C1 symmetry has been detected, increase convergence thresholds 
      if your molecule has a higher symmetry. Symmetry factor of 1.0 is   
      used for the rotational entropy correction. 
 

Note: Rotational entropy computed according to Herzberg 
Infrared and Raman Spectra, Chapter V,1, Van Nostrand Reinhold, 1945 
Point Group:  C1, Symmetry Number:   1  
Rotational constants in cm-1:     0.002727     0.001913     0.001614 

Vibrational entropy computed according to the QRRHO of S. Grimme
Chem.Eur.J. 2012 18 9955 using a reference frequency of 100.0 cm-1


-------
ENTROPY
-------

The entropy contributions are T*S = T*(S(el)+S(vib)+S(rot)+S(trans))
     S(el)   - electronic entropy
     S(vib)  - vibrational entropy
     S(rot)  - rotational entropy
     S(trans)- translational entropy
The entropies will be listed as multiplied by the temperature to get
units of energy

Electronic entropy                ...      0.00103729 Eh      0.65 kcal/mol
Vibrational entropy               ...      0.06603921 Eh     41.44 kcal/mol
Rotational entropy                ...      0.01828824 Eh     11.48 kcal/mol
Translational entropy             ...      0.02170685 Eh     13.62 kcal/mol
-----------------------------------------------------------------------
Final entropy term                ...      0.10707160 Eh     67.19 kcal/mol

In case the symmetry of your molecule has not been determined correctly
or in case you have a reason to use a different symmetry number we print 
out the resulting rotational entropy values for sn=1,12:

 non-linear molecules -----------------------------------
|  sn= 1 | S(rot)=       0.01828824 Eh     11.48 kcal/mol|
|  sn= 2 | S(rot)=       0.01763379 Eh     11.07 kcal/mol|
|  sn= 3 | S(rot)=       0.01725095 Eh     10.83 kcal/mol|
|  sn= 4 | S(rot)=       0.01697933 Eh     10.65 kcal/mol|
|  sn= 5 | S(rot)=       0.01676864 Eh     10.52 kcal/mol|
|  sn= 6 | S(rot)=       0.01659650 Eh     10.41 kcal/mol|
|  sn= 7 | S(rot)=       0.01645095 Eh     10.32 kcal/mol|
|  sn= 8 | S(rot)=       0.01632487 Eh     10.24 kcal/mol|
|  sn= 9 | S(rot)=       0.01621367 Eh     10.17 kcal/mol|
|  sn=10 | S(rot)=       0.01611419 Eh     10.11 kcal/mol|
|  sn=11 | S(rot)=       0.01602420 Eh     10.06 kcal/mol|
|  sn=12 | S(rot)=       0.01594204 Eh     10.00 kcal/mol|
 linear molecules ---------------------------------------
|  Dinfh | S(rot)=       0.01139601 Eh      7.15 kcal/mol|
|  Cinfv | S(rot)=       0.01205046 Eh      7.56 kcal/mol|
 --------------------------------------------------------


-------------------
GIBBS FREE ENERGY
-------------------

The Gibbs free energy is G = H - T*S

Total enthalpy                    ...  -6043.92710257 Eh 
Total entropy correction          ...     -0.10707160 Eh    -67.19 kcal/mol
-----------------------------------------------------------------------
Final Gibbs free energy         ...  -6044.03417416 Eh

For completeness - the Gibbs free energy minus the electronic energy
G-E(el)                           ...      0.52155206 Eh    327.28 kcal/mol


Maximum memory used throughout the entire PROP-calculation: 602.1 MB

--------------------------------
SUGGESTED CITATIONS FOR THIS RUN
--------------------------------

Below you find a list of papers that are relevant to this ORCA run
We neither can nor want to force you to cite these papers, but we appreciate if you do
You receive ORCA, which is the product of decades of hard work by many enthusiastic individuals, for free
The only thing we kindly ask in return is that you cite our papers,
We deeply appreciate it, if you show your appreciation for ORCA by not just citing the generic ORCA reference.

Please note that relegating all ORCA citations to the supporting information does *not* help us.
SI sections are not indexed - citations you put there will not count into any citation statistics
But we need these citations in order to attract the funding resources that allow us to do what we are doing

Therefore, if you are a happy ORCA user, please consider citing a few of the papers listed below in the main body of your paper

In addition to the list printed below, the program has created the file TS1_TS.bibtex that contains the list in bibtex format
You can import this file easily into all common literature databanks and citation aid programs


List of essential papers. We consider these as the minimum necessary citations

  1. Neese,F.
     Software update: the ORCA program system, version 5.0
     WIRES Comput. Molec. Sci., 2022 12(1)e1606
     doi.org/10.1002/wcms.1606

List of papers to cite with high priority. The work reported in these papers was absolutely
necessary for this run to complete.
Our perspective: the developers of density functionals and basis sets usually get cited in chemistry papers
Good! But without the algorithms to do something with them, the functionals or basis sets would not do anything.
Hence, in our opinion, the algorithm design and method developments papers are equally worthy of getting cited

  1. Neese,F.
     An improvement of the resolution of the identity approximation for the formation of the Coulomb matrix
     J. Comp. Chem., 2003 24(14)1740-1747
     doi.org/10.1002/jcc.10318
  2. Neese,F.; Wennmohs,F.; Hansen,A.; Becker,U.
     Efficient, approximate and parallel Hartree-Fock and hybrid DFT calculations. A 'chain-of-spheres' algorithm for the Hartree-Fock exchange
     Chem. Phys., 2009 356(1-3)98-109
     doi.org/10.1016/j.chemphys.2008.10.036
  3. Bykov,D.; Petrenko,T.; Izsak,R.; Kossmann,S.; Becker,U.; Valeev,E.; Neese,F.
     Efficient implementation of the analytic second derivatives of Hartree-Fock and hybrid DFT energies: a detailed analysis of different approximations
     Molec. Phys., 2015 113 1961-1977
     doi.org/10.1080/00268976.2015.1025114
  4. Garcia-Rates,M.; Neese,F.
     Efficient implementation of the analytical second derivatives of hartree-fock and hybrid DFT energies within the framework of the conductor-like polarizable continuum model
     J. Comput. Chem., 2019 40 1816-1828
     doi.org/10.1002/jcc.25833
  5. Garcia-Rates,M.; Neese,F.
     Effect of the Solute Cavity on the Solvation Energy and its Derivatives within the Framework of the Gaussian Charge Scheme
     J. Comput. Chem., 2020 41 922-939
     doi.org/10.1002/jcc.26139
  6. Helmich-Paris,B.; de Souza,B.; Neese,F.; Izsák,R.
     An improved chain of spheres for exchange algorithm
     J. Chem. Phys., 2021 155 104109
     doi.org/doi: 10.1063/5.0058766.
  7. Neese,F.
     The SHARK Integral Generation and Digestion System
     J. Comp. Chem., 2022  1-16
     doi.org/10.1002/jcc.26942
  8. Grimme,S.; Antony,J.; Ehrlich,S.; Krieg,H.
     A consistent and accurate ab initio parametrization of density functional dispersion correction (DFT-D) for the 94 elements H-Pu
     J. Chem. Phys., 2010 132 154104
     doi.org/10.1063/1.3382344
  9. Grimme,S.; Ehrlich,S.; Goerigk,L.
     Effect of the damping function in dispersion corrected density functional theory
     J. Comput. Chem., 2011 32(7)1456-1465
     doi.org/10.1002/jcc.21759

List of suggested additional citations. These are papers that are important in the 'surrounding' of 
of this run, or papers that preceded the highly important papers. If you like your results we are grateful for a citation.

  1. Izsak,R.; Neese,F.
     An overlap fitted chain of spheres exchange method
     J. Chem. Phys., 2011 135 144105
     doi.org/10.1063/1.3646921
  2. Izsak,R.; Hansen,A.; Neese,F.
     The resolution of identity and chain of spheres approximations for the LPNO-CCSD singles Fock term
     Molec. Phys., 2012 110 2413-2417
     doi.org/10.1080/00268976.2012.687466
  3. Neese,F.
     The ORCA program system
     WIRES Comput. Molec. Sci., 2012 2(1)73-78
     doi.org/10.1002/wcms.81
  4. Izsak,R.; Neese,F.; Klopper,W.
     Robust fitting techniques in the chain of spheres approximation to the Fock exchange: The role of the complementary space
     J. Chem. Phys., 2013 139 
     doi.org/10.1063/1.4819264
  5. Neese,F.
     Software update: the ORCA program system, version 4.0
     WIRES Comput. Molec. Sci., 2018 8(1)1-6
     doi.org/10.1002/wcms.1327
  6. Neese,F.; Wennmohs,F.; Becker,U.; Riplinger,C.
     The ORCA quantum chemistry program package
     J. Chem. Phys., 2020 152 Art. No. L224108
     doi.org/10.1063/5.0004608

List of optional additional citations

  1. Neese,F.
     Approximate second-order SCF convergence for spin unrestricted wavefunctions
     Chem. Phys. Lett., 2000 325(1-3)93-98
     doi.org/10.1016/s0009-2614(00)00662-x

Timings for individual modules:

Sum of individual times          ...     9849.137 sec (= 164.152 min)
Startup calculation              ...       44.597 sec (=   0.743 min)   0.5 %
SCF iterations                   ...     1127.963 sec (=  18.799 min)  11.5 %
Property integrals               ...     1328.950 sec (=  22.149 min)  13.5 %
SCF Response                     ...     6549.707 sec (= 109.162 min)  66.5 %
Property calculations            ...      620.461 sec (=  10.341 min)   6.3 %
SCF Gradient evaluation          ...      176.664 sec (=   2.944 min)   1.8 %
Geometry relaxation              ...        0.794 sec (=   0.013 min)   0.0 %
                             ****ORCA TERMINATED NORMALLY****
TOTAL RUN TIME: 0 days 5 hours 31 minutes 26 seconds 800 msec
